# vtk DataFile Version 4.0
Generated by LIGGGHTS
ASCII
DATASET POLYDATA
POINTS 1500 float
-0.0322719 -0.0825885 0.00149966 -0.0389436 -0.0176271 0.00149965 -0.0694254 -0.120413 0.00726476 
-0.0122856 -0.121648 0.011188 -0.123925 -0.114404 0.00185336 -0.0480858 -0.113665 0.00208611 
-0.0348019 -0.107489 0.00426021 -0.0247513 -0.0959061 0.014414 -0.059648 -0.0894697 0.00590774 
-0.00477314 -0.084587 0.0044308 -0.0719348 -0.0796067 0.00261995 -0.0126652 -0.0663763 0.00366072 
-0.0211702 -0.0647741 0.0042559 -0.0194099 -0.058679 0.00357234 -0.0188228 -0.0514386 0.00429848 
-0.0903339 -0.0503849 0.0108656 -0.04546 -0.0536247 0.00477271 -0.0788405 -0.00243727 0.0291334 
-0.0747398 -0.0465406 0.0025025 -0.0448585 -0.0466499 0.00174926 -0.0628294 -0.0443428 0.0111912 
-0.027817 -0.0449151 0.00277032 -0.0169313 -0.0439646 0.00327904 -0.0560371 -0.0409182 0.00946566 
-0.0412424 -0.0432468 0.00729107 -0.0404535 -0.0352307 0.00181644 -0.0244588 -0.0320671 0.00364312 
-0.0223631 -0.0353119 0.00971507 -0.0420672 -0.0319303 0.0082404 -0.0291301 -0.0314556 0.00271122 
-0.0747295 -0.0332091 0.00741949 -0.0717656 -0.0195107 0.00155297 -0.042865 -0.0282354 0.00363162 
-0.0176157 -0.00233013 0.00954414 -0.0448839 -0.0227766 0.00323376 -0.0207348 -0.00153854 0.0245644 
-0.0413916 -0.00576058 0.00172967 -0.0839265 -0.0110062 0.0122237 -0.0841961 -0.00376871 0.0116222 
-0.0523245 -0.005834 0.00591341 -0.00210407 -0.0104619 0.0437299 -0.00369145 -0.139824 0.00656085 
-0.0860161 -0.127434 0.00506489 -0.0476287 -0.116183 0.0153226 -0.0509688 -0.0940869 0.00555317 
-0.0317049 -0.0905278 0.0025722 -0.0646963 -0.0849374 0.00276916 -0.0464498 -0.0810951 0.0126685 
-0.0329394 -0.0802507 0.00341091 -0.0796794 -0.0762813 0.00611726 -0.0163986 -0.0713461 0.00234185 
-0.0882911 -0.0663225 0.0159323 -0.036783 -0.057369 0.00980473 -0.0113543 -0.0577248 0.00766139 
-0.0608052 -0.0527573 0.0143428 -0.025522 -0.0484178 0.0106763 -0.169711 -0.0462522 0.00454025 
-0.0596653 -0.0484837 0.00830892 -0.0612059 -0.0558804 0.00532915 -0.0929464 -0.0465332 0.00442628 
-0.00739969 -0.0465675 0.00677216 -0.0157848 -0.0497594 0.0185277 -0.0490369 -0.0393693 0.00279342 
-0.0974684 -0.0353648 0.0157614 -0.0479514 -0.0267402 0.00207432 -0.0356906 -0.0376585 0.00815174 
-0.0325193 -0.0293122 0.00928192 -0.00190531 -0.0272177 0.00475169 -0.0400102 -0.03706 0.00683983 
-0.097322 -0.0112488 0.00893141 -0.00855732 -0.0228282 0.0130627 -0.0580241 -0.0194087 0.0136793 
-0.0650974 -0.0244373 0.00698396 -0.101835 -0.0179427 0.014489 -0.096192 -0.0201096 0.00922035 
-0.0328606 -0.0119274 0.00587256 -0.071615 -0.0104953 0.00878464 -0.0531464 -0.0047355 0.00979657 
-0.108278 -0.00414325 0.00584354 -0.0816054 -0.000826204 0.0336017 -0.0155448 -0.00449295 0.00973587 
-0.0908784 -0.00184456 0.00844832 -0.0766694 -0.00635763 0.010617 -0.0165361 -0.146349 0.0132429 
-0.0766549 -0.110795 0.0107439 -0.08539 -0.0944026 0.0113232 -0.0655403 -0.0953757 0.0049069 
-0.0454607 -0.0924265 0.0155193 -0.0397235 -0.0840513 0.00489143 -0.0249107 -0.0786772 0.00607167 
-0.0610989 -0.0824881 0.00269229 -0.0621109 -0.0677007 0.00282114 -0.0306114 -0.0809804 0.00846448 
-0.0881424 -0.0665033 0.0109813 -0.031421 -0.0649388 0.012057 -0.0309478 -0.0608832 0.00868715 
-0.0130755 -0.0586203 0.0100659 -0.0324127 -0.0615425 0.0126386 -0.0294338 -0.0475985 0.00322018 
-0.0446583 -0.0498335 0.00566148 -0.0409898 -0.0421968 0.0130961 -0.0335428 -0.0513473 0.0095417 
-0.0770995 -0.0389381 0.00248947 -0.0373021 -0.0458213 0.00588621 -0.0230054 -0.039695 0.0147556 
-0.0646556 -0.0412073 0.0150667 -0.0109721 -0.0352625 0.00961047 -0.117276 -0.0435194 0.013163 
-0.0542994 -0.0335606 0.00407956 -0.0336185 -0.0192369 0.00511732 -0.0140125 -0.0307837 0.00651479 
-0.0970195 -0.0258396 0.0142048 -0.0654566 -0.0294551 0.0120074 -0.041953 -0.0204031 0.0111177 
-0.0540558 -0.0166439 0.0156862 -0.0476053 -0.0214322 0.00960726 -0.0777424 -0.0157163 0.0119132 
-0.0577628 -0.0142973 0.00409304 -0.0720844 -0.0222819 0.00897691 -0.0469991 -0.014104 0.0117401 
-0.00860959 -0.00567298 0.0109297 -0.0264094 -0.0121932 0.0154885 -0.0708457 -0.00294179 0.0116099 
-0.0506309 -0.0026019 0.00185789 -0.0596244 -0.157608 0.00915543 -0.042315 -0.10439 0.0186292 
-0.0494893 -0.0963914 0.0206592 -0.00769493 -0.0886785 0.00372923 -0.0113355 -0.0909293 0.0129661 
-0.0869958 -0.0760798 0.0136103 -0.115635 -0.0763534 0.0153381 -0.0369944 -0.0655106 0.0246253 
-0.0546773 -0.0606359 0.0101258 -0.0246935 -0.0673643 0.00725094 -0.00284457 -0.0540138 0.00667718 
-0.0503711 -0.0635635 0.0232728 -0.0796075 -0.0549279 0.0253061 -0.0509584 -0.0526067 0.0130373 
-0.0825503 -0.043581 0.00777668 -0.033801 -0.0544455 0.0147984 -0.0671778 -0.0278385 0.00456689 
-0.0926421 -0.0360238 0.0263489 -0.0413638 -0.0262519 0.00987154 -0.00298319 -0.0332167 0.0142363 
-0.0537334 -0.0248666 0.0101389 -0.0795735 -0.0264691 0.00829684 -0.0556522 -0.017391 0.00167974 
-0.002682 -0.0219482 0.00785554 -0.00949952 -0.0133437 0.0198569 -0.0173499 -0.00773404 0.00886813 
-0.0361874 -0.00231561 0.0104956 -0.0924694 -0.0329229 0.102115 -0.0387989 -0.171474 0.0130786 
-0.00812631 -0.152262 0.0125778 -0.0241231 -0.136581 0.017628 -0.118744 -0.108436 0.0108998 
-0.115916 -0.0974349 0.017974 -0.0826918 -0.102758 0.0089775 -0.0279665 -0.0869773 0.00511828 
-0.14406 -0.0802115 0.0169782 -0.048094 -0.0746632 0.00621892 -0.148275 -0.0721799 0.0200647 
-0.0511398 -0.0630029 0.00722912 -0.0390558 -0.0714711 0.00828331 -0.0939528 -0.057261 0.0177461 
-0.0744464 -0.0628474 0.0128219 -0.0816157 -0.0526704 0.0204685 -0.0560443 -0.0469417 0.0187927 
-0.0137153 -0.0448289 0.0204794 -0.0594194 -0.038775 0.018563 -0.0901006 -0.0209487 0.0268775 
-0.12594 -0.00775248 0.0240716 -0.0607745 -0.0756801 0.00869086 -0.0223846 -0.0742775 0.0185117 
-0.0346333 -0.0116261 0.0110603 -0.0806361 -0.0610257 0.0269406 -0.0631439 -0.064902 0.0142526 
-0.0937888 -0.0577673 0.0271416 -0.0570976 -0.0572056 0.00770234 -0.0202753 -0.0519522 0.0141733 
-0.0444466 -0.035658 0.0169935 -0.0312796 -0.0397329 0.0182487 -0.0965809 -0.0376109 0.00271518 
-0.00964398 -0.0285053 0.0125489 -0.0421603 -0.0340814 0.0236496 -0.104141 -0.0249568 0.0151995 
-0.112226 -0.0163906 0.0276231 -0.0621564 -0.00724311 0.0156901 -0.0260158 -0.00518185 0.00144843 
-0.0177347 -0.0889603 0.0229548 -0.0924082 -0.0874411 0.026648 -0.000233856 -0.0686875 0.0118335 
-0.0693788 -0.0710941 0.0162232 -0.0150177 -0.0559998 0.0210046 -0.0758261 -0.0529617 0.0202911 
-0.0700203 -0.0462462 0.0219033 -0.0408392 -0.0463429 0.0307784 -0.0681334 -0.0380201 0.0298116 
-0.0131331 -0.0309268 0.031723 -0.0895193 -0.0319437 0.0224786 -0.0242529 -0.00283046 0.0202578 
-0.0211565 -0.00535641 0.0214449 -0.080052 -0.00961938 0.0217267 -0.0267374 -0.105404 0.0300596 
-0.0575876 -0.102407 0.020374 -0.0461988 -0.103158 0.0194955 -0.0432194 -0.0881034 0.0377303 
-0.0509716 -0.0794334 0.0370507 -0.0799712 -0.0754851 0.0105098 -0.0173719 -0.0666544 0.0244787 
-0.0527624 -0.0521367 0.0268979 -0.0143158 -0.0523208 0.0276263 -0.00834097 -0.0473935 0.0140611 
-0.0786234 -0.0230231 0.0374488 -0.0733215 -0.0247323 0.0344111 -0.0256514 -0.02288 0.0374495 
-0.0710586 -0.0204496 0.0351213 -0.0488461 -0.0084842 0.0143168 -0.0424238 -0.0138705 0.0349635 
-0.0273819 -0.00805344 0.0321121 -0.0808206 -0.00695434 0.0363432 -0.00635616 -0.0106197 0.0303377 
-0.0473984 -0.0019862 0.0173919 -0.0525741 -0.0101245 0.035067 -0.0384793 -0.0733969 0.0266315 
-0.0236859 -0.0661345 0.0254917 -0.0960198 -0.0537042 0.0290039 -0.0169653 -0.0514985 0.0162195 
-0.0143611 -0.0478013 0.0203732 -0.0594773 -0.0397928 0.0328717 -0.0374447 -0.0325562 0.0382116 
-0.093155 -0.0165765 0.0263432 -0.108229 -0.00767249 0.0248775 -0.0658529 -0.0188054 0.03637 
-0.0332489 -0.0140985 0.0393499 -0.0710691 -0.0192766 0.00487264 -0.0816993 -0.0163558 0.0368616 
-0.011017 -0.0136684 0.0375606 -0.0413197 -0.101521 0.0347781 -0.0368554 -0.0918382 0.0179045 
-0.0575569 -0.0624436 0.0286947 -0.0333927 -0.0621158 0.0389667 -0.0288553 -0.0491094 0.0357239 
-0.0149588 -0.0391548 0.0381564 -0.086653 -0.0338925 0.0111462 -0.023736 -0.0343691 0.0305407 
-0.136347 -0.00794306 0.0268456 -0.00682623 -0.100906 0.0320485 -0.0201647 -0.0614708 0.0268299 
-0.00419693 -0.0624395 0.0322879 -0.0878127 -0.031204 0.0296027 -0.00455491 -0.0318016 0.0283308 
-0.0343575 -0.0256246 0.0238295 -0.0250691 -0.0097178 0.0245183 -0.039906 -0.0152875 0.0381104 
-0.0387183 -0.0219365 0.039031 -0.0327455 -0.00751772 0.0358259 -0.104036 -0.0014608 0.0368813 
-0.0539864 -0.0129992 0.0300637 -0.00420057 -0.119287 0.0394105 -0.0543301 -0.0832461 0.0338376 
-0.0568143 -0.0705737 0.0388631 -0.0667915 -0.0456919 0.0388776 -0.0281457 -0.0454633 0.0495641 
-0.00480349 -0.0407316 0.0351085 -0.0891011 -0.0430454 0.0251644 -0.022411 -0.0251197 0.0339108 
-0.0385677 -0.0206342 0.0442578 -0.0143288 -0.0235798 0.0496283 -0.0751782 -0.0115517 0.0473133 
-0.0310844 -0.00507144 0.0209416 -0.0491066 -0.201613 0.0388593 -0.00420115 -0.124972 0.0458246 
-0.0336442 -0.0965869 0.0453212 -0.000371477 -0.0798728 0.0343826 -0.0157184 -0.0787242 0.0500017 
-0.0427091 -0.0716472 0.0524379 -0.0882755 -0.0466527 0.0500333 -0.00782097 -0.0499203 0.0433513 
-0.0720076 -0.0310205 0.0490773 -0.0915823 -0.0262895 0.0466567 -0.0736123 -0.00164538 0.0491742 
-0.0311379 -0.00563175 0.0497832 -0.0131146 -0.117501 0.0477162 -0.0830096 -0.0674408 0.0502182 
-0.0378304 -0.0564687 0.0481016 -0.0618574 -0.0172508 0.0512612 -0.0347085 -0.00996967 0.0510514 
-0.0937807 -0.0129601 0.0511781 -0.0983919 -0.118558 0.047938 -0.0915241 -0.110988 0.0553782 
-0.0556253 -0.112544 0.0430811 -0.0305984 -0.067984 0.0609043 -0.00341145 -0.0619758 0.0569674 
-0.0399674 -0.0304248 0.0461335 -0.0421488 -0.0218394 0.0400098 -0.065182 -0.0140542 0.0582388 
-0.0525979 -0.0126555 0.0606314 -0.0314519 -0.0115455 0.0593214 -0.0841369 -0.00897575 0.0580465 
-0.0393875 -0.0849045 0.060065 -0.059581 -0.078365 0.0606074 -0.0368998 -0.075586 0.0628421 
[...]
POINT_DATA 1500
FIELD FieldData 7
id 1 1500 int
457 384 157 1218 332 187 614 1352 761 
168 52 785 29 751 845 1228 903 506 
456 314 466 467 912 1224 1201 1226 185 
479 1233 901 627 320 39 75 626 884 
612 1245 453 1231 589 154 316 24 634 
762 936 1354 618 913 775 1085 1377 621 
1353 635 486 31 914 910 18 1232 1376 
1221 471 1076 413 1237 1374 971 1368 1364 
615 25 1058 327 973 671 334 947 527 
1362 1404 408 186 919 463 757 759 319 
928 927 184 1081 779 336 780 1080 1381 
1372 3 1356 11 1234 1202 921 783 1084 
1238 309 852 918 1371 1205 1052 373 1357 
40 1375 1373 601 1213 1380 972 174 991 
923 1215 776 178 929 1208 1361 1351 1083 
1211 1203 630 1088 788 1064 1227 315 476 
1369 1386 1229 1378 917 1384 1379 20 330 
253 379 13 307 462 1359 617 905 777 
1069 1051 774 1063 1065 487 86 163 1204 
1067 1387 30 806 1056 1235 171 934 393 
1370 1223 15 96 954 156 1074 454 344 
924 755 1388 1209 998 1365 490 1055 1060 
1072 177 933 680 906 990 1073 478 1082 
1071 1214 473 610 107 1236 1079 1057 1075 
1062 1220 1053 911 1077 1070 23 1120 772 
758 922 176 1363 326 1086 926 1367 303 
1078 1390 952 1039 10 633 304 937 853 
932 165 1068 169 472 782 246 451 829 
619 1225 753 804 188 808 656 760 4 
469 328 935 310 1385 1310 606 938 930 
338 153 550 620 1355 916 908 915 397 
931 752 907 159 323 190 631 301 608 
673 155 623 1207 754 756 1222 1383 781 
773 769 763 786 771 787 1108 700 764 
12 767 1358 1382 481 766 778 318 162 
110 37 464 1210 639 607 638 629 603 
604 909 1366 602 483 488 382 1 339 
179 480 460 477 166 485 38 465 458 
311 337 313 302 306 305 317 182 152 
151 1410 173 167 9 16 28 34 36 
175 21 7 27 676 889 1135 1457 367 
1255 643 1059 333 925 499 770 1094 1098 
356 172 1252 677 791 363 1254 202 1093 
1113 963 562 732 652 1241 586 198 622 
792 522 353 1123 1099 654 1402 19 650 
1111 1183 967 942 158 520 516 429 1097 
213 1124 1112 54 817 523 1340 55 519 
368 72 149 765 1217 494 1125 1119 1023 
822 1266 502 1415 76 1017 1265 950 815 
492 809 45 66 365 798 1181 1400 285 
352 278 375 221 1212 1416 380 803 590 
1250 1253 222 295 674 640 1269 670 823 
1262 581 1248 1389 366 1394 32 867 1256 
958 1395 1272 646 1401 1421 974 645 44 
206 1246 212 1247 17 697 1411 1276 949 
1409 1478 48 965 1422 647 1412 1091 1398 
625 220 1261 1418 1271 805 1251 1426 665 
347 511 141 1239 1263 1407 1240 1243 1414 
1423 1268 49 870 1424 1419 1264 648 50 
1230 1273 960 802 215 475 208 1399 1403 
1396 970 799 349 946 193 1122 1275 1105 
820 1408 430 147 611 452 1104 1413 904 
1244 1114 969 534 1109 2 1417 811 1274 
195 616 1107 953 223 288 197 446 74 
461 605 1092 653 655 1095 351 663 196 
962 818 943 1100 1103 145 283 69 1121 
67 1089 493 1420 813 814 1391 181 59 
355 1118 1249 826 1090 824 1102 1397 1117 
797 361 503 58 669 793 1116 374 1096 
371 324 360 1318 512 57 624 642 93 
1259 226 6 795 43 65 1405 1045 941 
219 810 731 209 948 53 265 496 951 
956 966 64 218 955 342 641 957 945 
1242 944 1267 199 961 939 1106 968 1392 
1101 489 60 1004 164 1270 1406 1258 211 
63 819 357 498 1257 515 644 42 73 
801 225 800 794 790 189 563 796 51 
468 510 825 807 816 415 70 513 35 
661 868 657 1393 1472 431 666 651 660 
46 662 1360 659 672 71 668 207 56 
421 491 504 354 495 507 521 518 497 
501 359 524 345 358 362 341 348 343 
369 340 376 192 350 204 214 203 62 
217 191 216 205 47 112 266 5 263 
109 329 1153 482 308 455 1152 841 789 
254 541 1285 1006 843 1012 1000 1177 997 
289 546 849 559 80 1281 227 403 275 
390 539 1130 83 1134 529 1146 1311 989 
983 1444 459 97 1443 1301 1308 194 1305 
435 441 1126 1451 1293 703 79 1458 1303 
1427 1216 693 1291 710 1087 1430 896 1147 
1428 1155 100 832 505 572 269 270 14 
1438 1191 470 1282 102 1309 1150 1159 1461 
1312 1429 1440 1439 388 108 1139 840 1141 
1297 1290 1289 1445 1194 577 1435 412 863 
1145 1460 241 1288 691 1005 717 1161 1027 
33 1148 547 1306 1284 784 1143 1462 833 
1434 325 709 1278 994 1307 1286 1295 679 
1283 170 1447 26 1298 1436 1446 1292 964 
548 1162 88 902 1277 1294 396 1219 632 
828 1300 1456 834 381 554 985 1455 768 
1002 104 609 532 1304 229 847 228 245 
474 1136 392 1452 578 1160 576 860 1331 
850 1180 713 711 530 1441 978 835 1450 
1131 567 678 1008 1448 725 838 702 726 
862 1007 377 1157 1163 993 1144 259 979 
1138 999 613 1009 708 712 1158 258 1054 
252 873 684 1127 1454 1133 1132 77 277 
857 484 1156 1280 560 1151 704 1149 1011 
920 698 1431 976 854 688 250 105 90 
387 201 89 321 1010 257 237 996 980 
692 689 977 1287 1154 1437 144 1459 106 
383 695 987 981 837 231 261 405 628 
992 986 1142 335 984 160 8 543 1432 
982 1302 249 528 555 98 1296 1323 235 
830 827 858 831 1433 855 146 1279 839 
690 848 851 844 846 271 859 743 538 
535 84 636 705 161 694 696 230 1066 
533 701 685 682 537 699 274 1449 540 
707 591 424 553 549 1453 551 545 255 
558 544 281 526 557 552 391 81 561 
531 22 82 410 400 401 406 395 280 
399 378 409 385 404 389 398 117 85 
262 260 233 238 248 236 232 247 103 
94 99 101 87 95 111 78 91 312 
681 346 1206 1061 1260 940 593 588 1350 
686 891 291 139 370 1001 234 683 1172 
878 1182 1170 706 1198 414 836 1321 898 
1165 1185 687 61 1048 720 294 1013 664 
1325 436 1348 1319 1176 821 180 1044 68 
738 448 1480 574 272 736 1046 425 299 
126 861 517 244 1493 1179 1497 1332 239 
407 114 675 1498 1470 1487 1481 1341 570 
422 1173 1197 882 1473 565 1188 1049 748 
1315 568 741 871 1486 130 1469 1344 1468 
1036 536 1193 427 287 1164 1336 1495 1496 
1189 372 1475 897 1174 1328 1337 1314 727 
1338 447 1482 1038 1339 596 1190 1499 1199 
571 1463 282 1466 123 1347 875 1020 136 
888 718 331 143 1026 150 1476 137 1483 
1128 279 1490 1492 1037 747 1186 1327 876 
869 1467 418 428 1477 866 1326 1316 1016 
1175 1335 1322 1169 1171 812 746 1110 1333 
224 595 1320 842 988 872 148 599 1168 
1343 750 1313 1115 525 1474 1192 200 895 
1334 1317 267 730 1032 715 975 890 256 
598 1196 1471 1324 1019 121 449 887 745 
416 142 1200 1014 113 1491 892 1342 444 
268 959 735 1485 1184 864 1140 1129 573 
597 322 1489 1330 637 1047 1346 723 564 
575 434 1042 1030 881 1187 131 127 995 
183 411 394 1167 719 1178 749 1029 1349 
1035 1166 1195 417 667 116 1488 865 133 
300 386 1024 649 1028 583 1465 122 1025 
1018 542 856 500 714 721 1494 514 92 
1031 243 251 580 1033 1464 119 1329 879 
1034 1299 1022 442 1015 1041 445 1043 509 
1050 124 1021 1040 1479 293 900 722 240 
1003 883 1500 125 886 1484 584 286 885 
894 880 364 893 273 877 874 899 135 
556 115 432 41 1345 734 737 118 728 
716 566 729 742 402 739 740 744 140 
724 733 582 132 600 592 587 579 585 
290 594 569 129 439 450 134 423 440 
443 419 438 420 242 426 437 264 284 
276 433 296 297 298 120 292 138 128 
658 508 1442 210 1137 1425 
type 1 1500 int
1 1 1 1 1 1 1 1 1 
1 1 1 1 1 1 1 1 1 
1 1 1 1 1 1 1 1 1 
1 1 1 1 1 1 1 1 1 
1 1 1 1 1 1 1 1 1 
1 1 1 1 1 1 1 1 1 
1 1 1 1 1 1 1 1 1 
1 1 1 1 1 1 1 1 1 
1 1 1 1 1 1 1 1 1 
1 1 1 1 1 1 1 1 1 
1 1 1 1 1 1 1 1 1 
1 1 1 1 1 1 1 1 1 
1 1 1 1 1 1 1 1 1 
1 1 1 1 1 1 1 1 1 
1 1 1 1 1 1 1 1 1 
1 1 1 1 1 1 1 1 1 
1 1 1 1 1 1 1 1 1 
1 1 1 1 1 1 1 1 1 
1 1 1 1 1 1 1 1 1 
1 1 1 1 1 1 1 1 1 
1 1 1 1 1 1 1 1 1 
1 1 1 1 1 1 1 1 1 
1 1 1 1 1 1 1 1 1 
1 1 1 1 1 1 1 1 1 
1 1 1 1 1 1 1 1 1 
1 1 1 1 1 1 1 1 1 
1 1 1 1 1 1 1 1 1 
1 1 1 1 1 1 1 1 1 
1 1 1 1 1 1 1 1 1 
1 1 1 1 1 1 1 1 1 
1 1 1 1 1 1 1 1 1 
1 1 1 1 1 1 1 1 1 
1 1 1 1 1 1 1 1 1 
1 1 1 1 1 1 1 1 1 
1 1 1 1 1 1 1 1 1 
1 1 1 1 1 1 1 1 1 
1 1 1 1 1 1 1 1 1 
1 1 1 1 1 1 1 1 1 
1 1 1 1 1 1 1 1 1 
1 1 1 1 1 1 1 1 1 
1 1 1 1 1 1 1 1 1 
1 1 1 1 1 1 1 1 1 
1 1 1 1 1 1 1 1 1 
1 1 1 1 1 1 1 1 1 
1 1 1 1 1 1 1 1 1 
1 1 1 1 1 1 1 1 1 
1 1 1 1 1 1 1 1 1 
1 1 1 1 1 1 1 1 1 
1 1 1 1 1 1 1 1 1 
1 1 1 1 1 1 1 1 1 
1 1 1 1 1 1 1 1 1 
1 1 1 1 1 1 1 1 1 
1 1 1 1 1 1 1 1 1 
1 1 1 1 1 1 1 1 1 
1 1 1 1 1 1 1 1 1 
1 1 1 1 1 1 1 1 1 
1 1 1 1 1 1 1 1 1 
1 1 1 1 1 1 1 1 1 
1 1 1 1 1 1 1 1 1 
1 1 1 1 1 1 1 1 1 
1 1 1 1 1 1 1 1 1 
1 1 1 1 1 1 1 1 1 
1 1 1 1 1 1 1 1 1 
1 1 1 1 1 1 1 1 1 
1 1 1 1 1 1 1 1 1 
1 1 1 1 1 1 1 1 1 
1 1 1 1 1 1 1 1 1 
1 1 1 1 1 1 1 1 1 
1 1 1 1 1 1 1 1 1 
1 1 1 1 1 1 1 1 1 
1 1 1 1 1 1 1 1 1 
1 1 1 1 1 1 1 1 1 
1 1 1 1 1 1 1 1 1 
1 1 1 1 1 1 1 1 1 
1 1 1 1 1 1 1 1 1 
1 1 1 1 1 1 1 1 1 
1 1 1 1 1 1 1 1 1 
1 1 1 1 1 1 1 1 1 
1 1 1 1 1 1 1 1 1 
1 1 1 1 1 1 1 1 1 
1 1 1 1 1 1 1 1 1 
1 1 1 1 1 1 1 1 1 
1 1 1 1 1 1 1 1 1 
1 1 1 1 1 1 1 1 1 
1 1 1 1 1 1 1 1 1 
1 1 1 1 1 1 1 1 1 
1 1 1 1 1 1 1 1 1 
1 1 1 1 1 1 1 1 1 
1 1 1 1 1 1 1 1 1 
1 1 1 1 1 1 1 1 1 
1 1 1 1 1 1 1 1 1 
1 1 1 1 1 1 1 1 1 
1 1 1 1 1 1 1 1 1 
1 1 1 1 1 1 1 1 1 
1 1 1 1 1 1 1 1 1 
1 1 1 1 1 1 1 1 1 
1 1 1 1 1 1 1 1 1 
1 1 1 1 1 1 1 1 1 
1 1 1 1 1 1 1 1 1 
1 1 1 1 1 1 1 1 1 
1 1 1 1 1 1 1 1 1 
1 1 1 1 1 1 1 1 1 
1 1 1 1 1 1 1 1 1 
1 1 1 1 1 1 1 1 1 
1 1 1 1 1 1 1 1 1 
1 1 1 1 1 1 1 1 1 
1 1 1 1 1 1 1 1 1 
1 1 1 1 1 1 1 1 1 
1 1 1 1 1 1 1 1 1 
1 1 1 1 1 1 1 1 1 
1 1 1 1 1 1 1 1 1 
1 1 1 1 1 1 1 1 1 
1 1 1 1 1 1 1 1 1 
1 1 1 1 1 1 1 1 1 
1 1 1 1 1 1 1 1 1 
1 1 1 1 1 1 1 1 1 
1 1 1 1 1 1 1 1 1 
1 1 1 1 1 1 1 1 1 
1 1 1 1 1 1 1 1 1 
1 1 1 1 1 1 1 1 1 
1 1 1 1 1 1 1 1 1 
1 1 1 1 1 1 1 1 1 
1 1 1 1 1 1 1 1 1 
1 1 1 1 1 1 1 1 1 
1 1 1 1 1 1 1 1 1 
1 1 1 1 1 1 1 1 1 
1 1 1 1 1 1 1 1 1 
1 1 1 1 1 1 1 1 1 
1 1 1 1 1 1 1 1 1 
1 1 1 1 1 1 1 1 1 
1 1 1 1 1 1 1 1 1 
1 1 1 1 1 1 1 1 1 
1 1 1 1 1 1 1 1 1 
1 1 1 1 1 1 1 1 1 
1 1 1 1 1 1 1 1 1 
1 1 1 1 1 1 1 1 1 
1 1 1 1 1 1 1 1 1 
1 1 1 1 1 1 1 1 1 
1 1 1 1 1 1 1 1 1 
1 1 1 1 1 1 1 1 1 
1 1 1 1 1 1 1 1 1 
1 1 1 1 1 1 1 1 1 
1 1 1 1 1 1 1 1 1 
1 1 1 1 1 1 1 1 1 
1 1 1 1 1 1 1 1 1 
1 1 1 1 1 1 1 1 1 
1 1 1 1 1 1 1 1 1 
1 1 1 1 1 1 1 1 1 
1 1 1 1 1 1 1 1 1 
1 1 1 1 1 1 1 1 1 
1 1 1 1 1 1 1 1 1 
1 1 1 1 1 1 1 1 1 
1 1 1 1 1 1 1 1 1 
1 1 1 1 1 1 1 1 1 
1 1 1 1 1 1 1 1 1 
1 1 1 1 1 1 1 1 1 
1 1 1 1 1 1 1 1 1 
1 1 1 1 1 1 1 1 1 
1 1 1 1 1 1 1 1 1 
1 1 1 1 1 1 1 1 1 
1 1 1 1 1 1 1 1 1 
1 1 1 1 1 1 1 1 1 
1 1 1 1 1 1 1 1 1 
1 1 1 1 1 1 1 1 1 
1 1 1 1 1 1 1 1 1 
1 1 1 1 1 1 1 1 1 
1 1 1 1 1 1 
i 3 1500 int
0 0 0 0 0 0 0 0 0 
0 0 0 0 0 0 0 0 0 
0 0 0 0 0 0 0 0 0 
0 0 0 0 0 0 0 0 0 
0 0 0 0 0 0 0 0 0 
0 0 0 0 0 0 0 0 0 
0 0 0 0 0 0 0 0 0 
0 0 0 0 0 0 0 0 0 
0 0 0 0 0 0 0 0 0 
0 0 0 0 0 0 0 0 0 
0 0 0 0 0 0 0 0 0 
0 0 0 0 0 0 0 0 0 
0 0 0 0 0 0 0 0 0 
0 0 0 0 0 0 0 0 0 
0 0 0 0 0 0 0 0 0 
0 0 0 0 0 0 0 0 0 
0 0 0 0 0 0 0 0 0 
0 0 0 0 0 0 0 0 0 
0 0 0 0 0 0 0 0 0 
0 0 0 0 0 0 0 0 0 
0 0 0 0 0 0 0 0 0 
0 0 0 0 0 0 0 0 0 
0 0 0 0 0 0 0 0 0 
0 0 0 0 0 0 0 0 0 
0 0 0 0 0 0 0 0 0 
0 0 0 0 0 0 0 0 0 
0 0 0 0 0 0 0 0 0 
0 0 0 0 0 0 0 0 0 
0 0 0 0 0 0 0 0 0 
0 0 0 0 0 0 0 0 0 
0 0 0 0 0 0 0 0 0 
0 0 0 0 0 0 0 0 0 
0 0 0 0 0 0 0 0 0 
0 0 0 0 0 0 0 0 0 
0 0 0 0 0 0 0 0 0 
0 0 0 0 0 0 0 0 0 
0 0 0 0 0 0 0 0 0 
0 0 0 0 0 0 0 0 0 
0 0 0 0 0 0 0 0 0 
0 0 0 0 0 0 0 0 0 
0 0 0 0 0 0 0 0 0 
0 0 0 0 0 0 0 0 0 
0 0 0 0 0 0 0 0 0 
0 0 0 0 0 0 0 0 0 
0 0 0 0 0 0 0 0 0 
0 0 0 0 0 0 0 0 0 
0 0 0 0 0 0 0 0 0 
0 0 0 0 0 0 0 0 0 
0 0 0 0 0 0 0 0 0 
0 0 0 0 0 0 0 0 0 
0 0 0 0 0 0 0 0 0 
0 0 0 0 0 0 0 0 0 
0 0 0 0 0 0 0 0 0 
0 0 0 0 0 0 0 0 0 
0 0 0 0 0 0 0 0 0 
0 0 0 0 0 0 0 0 0 
0 0 0 0 0 0 0 0 0 
0 0 0 0 0 0 0 0 0 
0 0 0 0 0 0 0 0 0 
0 0 0 0 0 0 0 0 0 
0 0 0 0 0 0 0 0 0 
0 0 0 0 0 0 0 0 0 
0 0 0 0 0 0 0 0 0 
0 0 0 0 0 0 0 0 0 
0 0 0 0 0 0 0 0 0 
0 0 0 0 0 0 0 0 0 
0 0 0 0 0 0 0 0 0 
0 0 0 0 0 0 0 0 0 
0 0 0 0 0 0 0 0 0 
0 0 0 0 0 0 0 0 0 
0 0 0 0 0 0 0 0 0 
0 0 0 0 0 0 0 0 0 
0 0 0 0 0 0 0 0 0 
0 0 0 0 0 0 0 0 0 
0 0 0 0 0 0 0 0 0 
0 0 0 0 0 0 0 0 0 
0 0 0 0 0 0 0 0 0 
0 0 0 0 0 0 0 0 0 
0 0 0 0 0 0 0 0 0 
0 0 0 0 0 0 0 0 0 
0 0 0 0 0 0 0 0 0 
0 0 0 0 0 0 0 0 0 
0 0 0 0 0 0 0 0 0 
0 0 0 0 0 0 0 0 0 
0 0 0 0 0 0 0 0 0 
0 0 0 0 0 0 0 0 0 
0 0 0 0 0 0 0 0 0 
0 0 0 0 0 0 0 0 0 
0 0 0 0 0 0 0 0 0 
0 0 0 0 0 0 0 0 0 
0 0 0 0 0 0 0 0 0 
0 0 0 0 0 0 0 0 0 
0 0 0 0 0 0 0 0 0 
0 0 0 0 0 0 0 0 0 
0 0 0 0 0 0 0 0 0 
0 0 0 0 0 0 0 0 0 
0 0 0 0 0 0 0 0 0 
0 0 0 0 0 0 0 0 0 
0 0 0 0 0 0 0 0 0 
0 0 0 0 0 0 0 0 0 
0 0 0 0 0 0 0 0 0 
0 0 0 0 0 0 0 0 0 
0 0 0 0 0 0 0 0 0 
0 0 0 0 0 0 0 0 0 
0 0 0 0 0 0 0 0 0 
0 0 0 0 0 0 0 0 0 
0 0 0 0 0 0 0 0 0 
0 0 0 0 0 0 0 0 0 
0 0 0 0 0 0 0 0 0 
0 0 0 0 0 0 0 0 0 
0 0 0 0 0 0 0 0 0 
0 0 0 0 0 0 0 0 0 
0 0 0 0 0 0 0 0 0 
0 0 0 0 0 0 0 0 0 
0 0 0 0 0 0 0 0 0 
0 0 0 0 0 0 0 0 0 
0 0 0 0 0 0 0 0 0 
0 0 0 0 0 0 0 0 0 
0 0 0 0 0 0 0 0 0 
0 0 0 0 0 0 0 0 0 
0 0 0 0 0 0 0 0 0 
0 0 0 0 0 0 0 0 0 
0 0 0 0 0 0 0 0 0 
0 0 0 0 0 0 0 0 0 
0 0 0 0 0 0 0 0 0 
0 0 0 0 0 0 0 0 0 
0 0 0 0 0 0 0 0 0 
0 0 0 0 0 0 0 0 0 
0 0 0 0 0 0 0 0 0 
0 0 0 0 0 0 0 0 0 
0 0 0 0 0 0 0 0 0 
0 0 0 0 0 0 0 0 0 
0 0 0 0 0 0 0 0 0 
0 0 0 0 0 0 0 0 0 
0 0 0 0 0 0 0 0 0 
0 0 0 0 0 0 0 0 0 
0 0 0 0 0 0 0 0 0 
0 0 0 0 0 0 0 0 0 
0 0 0 0 0 0 0 0 0 
0 0 0 0 0 0 0 0 0 
0 0 0 0 0 0 0 0 0 
0 0 0 0 0 0 0 0 0 
0 0 0 0 0 0 0 0 0 
0 0 0 0 0 0 0 0 0 
0 0 0 0 0 0 0 0 0 
0 0 0 0 0 0 0 0 0 
0 0 0 0 0 0 0 0 0 
0 0 0 0 0 0 0 0 0 
0 0 0 0 0 0 0 0 0 
0 0 0 0 0 0 0 0 0 
0 0 0 0 0 0 0 0 0 
0 0 0 0 0 0 0 0 0 
0 0 0 0 0 0 0 0 0 
0 0 0 0 0 0 0 0 0 
0 0 0 0 0 0 0 0 0 
0 0 0 0 0 0 0 0 0 
0 0 0 0 0 0 0 0 0 
0 0 0 0 0 0 0 0 0 
0 0 0 0 0 0 0 0 0 
0 0 0 0 0 0 0 0 0 
0 0 0 0 0 0 0 0 0 
0 0 0 0 0 0 0 0 0 
0 0 0 0 0 0 0 0 0 
0 0 0 0 0 0 0 0 0 
0 0 0 0 0 0 0 0 0 
0 0 0 0 0 0 0 0 0 
0 0 0 0 0 0 0 0 0 
0 0 0 0 0 0 0 0 0 
0 0 0 0 0 0 0 0 0 
0 0 0 0 0 0 0 0 0 
0 0 0 0 0 0 0 0 0 
0 0 0 0 0 0 0 0 0 
0 0 0 0 0 0 0 0 0 
0 0 0 0 0 0 0 0 0 
0 0 0 0 0 0 0 0 0 
0 0 0 0 0 0 0 0 0 
0 0 0 0 0 0 0 0 0 
0 0 0 0 0 0 0 0 0 
0 0 0 0 0 0 0 0 0 
0 0 0 0 0 0 0 0 0 
0 0 0 0 0 0 0 0 0 
0 0 0 0 0 0 0 0 0 
0 0 0 0 0 0 0 0 0 
0 0 0 0 0 0 0 0 0 
0 0 0 0 0 0 0 0 0 
0 0 0 0 0 0 0 0 0 
0 0 0 0 0 0 0 0 0 
0 0 0 0 0 0 0 0 0 
0 0 0 0 0 0 0 0 0 
0 0 0 0 0 0 0 0 0 
0 0 0 0 0 0 0 0 0 
0 0 0 0 0 0 0 0 0 
0 0 0 0 0 0 0 0 0 
0 0 0 0 0 0 0 0 0 
0 0 0 0 0 0 0 0 0 
0 0 0 0 0 0 0 0 0 
0 0 0 0 0 0 0 0 0 
0 0 0 0 0 0 0 0 0 
0 0 0 0 0 0 0 0 0 
0 0 0 0 0 0 0 0 0 
0 0 0 0 0 0 0 0 0 
0 0 0 0 0 0 0 0 0 
0 0 0 0 0 0 0 0 0 
0 0 0 0 0 0 0 0 0 
0 0 0 0 0 0 0 0 0 
0 0 0 0 0 0 0 0 0 
0 0 0 0 0 0 0 0 0 
0 0 0 0 0 0 0 0 0 
0 0 0 0 0 0 0 0 0 
0 0 0 0 0 0 0 0 0 
0 0 0 0 0 0 0 0 0 
0 0 0 0 0 0 0 0 0 
0 0 0 0 0 0 0 0 0 
0 0 0 0 0 0 0 0 0 
0 0 0 0 0 0 0 0 0 
0 0 0 0 0 0 0 0 0 
0 0 0 0 0 0 0 0 0 
0 0 0 0 0 0 0 0 0 
0 0 0 0 0 0 0 0 0 
0 0 0 0 0 0 0 0 0 
0 0 0 0 0 0 0 0 0 
0 0 0 0 0 0 0 0 0 
0 0 0 0 0 0 0 0 0 
0 0 0 0 0 0 0 0 0 
0 0 0 0 0 0 0 0 0 
0 0 0 0 0 0 0 0 0 
0 0 0 0 0 0 0 0 0 
0 0 0 0 0 0 0 0 0 
0 0 0 0 0 0 0 0 0 
0 0 0 0 0 0 0 0 0 
0 0 0 0 0 0 0 0 0 
0 0 0 0 0 0 0 0 0 
0 0 0 0 0 0 0 0 0 
0 0 0 0 0 0 0 0 0 
0 0 0 0 0 0 0 0 0 
0 0 0 0 0 0 0 0 0 
0 0 0 0 0 0 0 0 0 
0 0 0 0 0 0 0 0 0 
0 0 0 0 0 0 0 0 0 
0 0 0 0 0 0 0 0 0 
0 0 0 0 0 0 0 0 0 
0 0 0 0 0 0 0 0 0 
0 0 0 0 0 0 0 0 0 
0 0 0 0 0 0 0 0 0 
0 0 0 0 0 0 0 0 0 
0 0 0 0 0 0 0 0 0 
0 0 0 0 0 0 0 0 0 
0 0 0 0 0 0 0 0 0 
0 0 0 0 0 0 0 0 0 
0 0 0 0 0 0 0 0 0 
0 0 0 0 0 0 0 0 0 
0 0 0 0 0 0 0 0 0 
0 0 0 0 0 0 0 0 0 
0 0 0 0 0 0 0 0 0 
0 0 0 0 0 0 0 0 0 
0 0 0 0 0 0 0 0 0 
0 0 0 0 0 0 0 0 0 
0 0 0 0 0 0 0 0 0 
0 0 0 0 0 0 0 0 0 
0 0 0 0 0 0 0 0 0 
0 0 0 0 0 0 0 0 0 
0 0 0 0 0 0 0 0 0 
0 0 0 0 0 0 0 0 0 
0 0 0 0 0 0 0 0 0 
0 0 0 0 0 0 0 0 0 
0 0 0 0 0 0 0 0 0 
0 0 0 0 0 0 0 0 0 
0 0 0 0 0 0 0 0 0 
0 0 0 0 0 0 0 0 0 
0 0 0 0 0 0 0 0 0 
0 0 0 0 0 0 0 0 0 
0 0 0 0 0 0 0 0 0 
0 0 0 0 0 0 0 0 0 
0 0 0 0 0 0 0 0 0 
0 0 0 0 0 0 0 0 0 
0 0 0 0 0 0 0 0 0 
0 0 0 0 0 0 0 0 0 
0 0 0 0 0 0 0 0 0 
0 0 0 0 0 0 0 0 0 
0 0 0 0 0 0 0 0 0 
0 0 0 0 0 0 0 0 0 
0 0 0 0 0 0 0 0 0 
0 0 0 0 0 0 0 0 0 
0 0 0 0 0 0 0 0 0 
0 0 0 0 0 0 0 0 0 
0 0 0 0 0 0 0 0 0 
0 0 0 0 0 0 0 0 0 
0 0 0 0 0 0 0 0 0 
0 0 0 0 0 0 0 0 0 
0 0 0 0 0 0 0 0 0 
0 0 0 0 0 0 0 0 0 
0 0 0 0 0 0 0 0 0 
0 0 0 0 0 0 0 0 0 
0 0 0 0 0 0 0 0 0 
0 0 0 0 0 0 0 0 0 
0 0 0 0 0 0 0 0 0 
0 0 0 0 0 0 0 0 0 
0 0 0 0 0 0 0 0 0 
0 0 0 0 0 0 0 0 0 
0 0 0 0 0 0 0 0 0 
0 0 0 0 0 0 0 0 0 
0 0 0 0 0 0 0 0 0 
0 0 0 0 0 0 0 0 0 
0 0 0 0 0 0 0 0 0 
0 0 0 0 0 0 0 0 0 
0 0 0 0 0 0 0 0 0 
0 0 0 0 0 0 0 0 0 
0 0 0 0 0 0 0 0 0 
0 0 0 0 0 0 0 0 0 
0 0 0 0 0 0 0 0 0 
0 0 0 0 0 0 0 0 0 
0 0 0 0 0 0 0 0 0 
0 0 0 0 0 0 0 0 0 
0 0 0 0 0 0 0 0 0 
0 0 0 0 0 0 0 0 0 
0 0 0 0 0 0 0 0 0 
0 0 0 0 0 0 0 0 0 
0 0 0 0 0 0 0 0 0 
0 0 0 0 0 0 0 0 0 
0 0 0 0 0 0 0 0 0 
0 0 0 0 0 0 0 0 0 
0 0 0 0 0 0 0 0 0 
0 0 0 0 0 0 0 0 0 
0 0 0 0 0 0 0 0 0 
0 0 0 0 0 0 0 0 0 
0 0 0 0 0 0 0 0 0 
0 0 0 0 0 0 0 0 0 
0 0 0 0 0 0 0 0 0 
0 0 0 0 0 0 0 0 0 
0 0 0 0 0 0 0 0 0 
0 0 0 0 0 0 0 0 0 
0 0 0 0 0 0 0 0 0 
0 0 0 0 0 0 0 0 0 
0 0 0 0 0 0 0 0 0 
0 0 0 0 0 0 0 0 0 
0 0 0 0 0 0 0 0 0 
0 0 0 0 0 0 0 0 0 
0 0 0 0 0 0 0 0 0 
0 0 0 0 0 0 0 0 0 
0 0 0 0 0 0 0 0 0 
0 0 0 0 0 0 0 0 0 
0 0 0 0 0 0 0 0 0 
0 0 0 0 0 0 0 0 0 
0 0 0 0 0 0 0 0 0 
0 0 0 0 0 0 0 0 0 
0 0 0 0 0 0 0 0 0 
0 0 0 0 0 0 0 0 0 
0 0 0 0 0 0 0 0 0 
0 0 0 0 0 0 0 0 0 
0 0 0 0 0 0 0 0 0 
0 0 0 0 0 0 0 0 0 
0 0 0 0 0 0 0 0 0 
0 0 0 0 0 0 0 0 0 
0 0 0 0 0 0 0 0 0 
0 0 0 0 0 0 0 0 0 
0 0 0 0 0 0 0 0 0 
0 0 0 0 0 0 0 0 0 
0 0 0 0 0 0 0 0 0 
0 0 0 0 0 0 0 0 0 
0 0 0 0 0 0 0 0 0 
0 0 0 0 0 0 0 0 0 
0 0 0 0 0 0 0 0 0 
0 0 0 0 0 0 0 0 0 
0 0 0 0 0 0 0 0 0 
0 0 0 0 0 0 0 0 0 
0 0 0 0 0 0 0 0 0 
0 0 0 0 0 0 0 0 0 
0 0 0 0 0 0 0 0 0 
0 0 0 0 0 0 0 0 0 
0 0 0 0 0 0 0 0 0 
0 0 0 0 0 0 0 0 0 
0 0 0 0 0 0 0 0 0 
0 0 0 0 0 0 0 0 0 
0 0 0 0 0 0 0 0 0 
0 0 0 0 0 0 0 0 0 
0 0 0 0 0 0 0 0 0 
0 0 0 0 0 0 0 0 0 
0 0 0 0 0 0 0 0 0 
0 0 0 0 0 0 0 0 0 
0 0 0 0 0 0 0 0 0 
0 0 0 0 0 0 0 0 0 
0 0 0 0 0 0 0 0 0 
0 0 0 0 0 0 0 0 0 
0 0 0 0 0 0 0 0 0 
0 0 0 0 0 0 0 0 0 
0 0 0 0 0 0 0 0 0 
0 0 0 0 0 0 0 0 0 
0 0 0 0 0 0 0 0 0 
0 0 0 0 0 0 0 0 0 
0 0 0 0 0 0 0 0 0 
0 0 0 0 0 0 0 0 0 
0 0 0 0 0 0 0 0 0 
0 0 0 0 0 0 0 0 0 
0 0 0 0 0 0 0 0 0 
0 0 0 0 0 0 0 0 0 
0 0 0 0 0 0 0 0 0 
0 0 0 0 0 0 0 0 0 
0 0 0 0 0 0 0 0 0 
0 0 0 0 0 0 0 0 0 
0 0 0 0 0 0 0 0 0 
0 0 0 0 0 0 0 0 0 
0 0 0 0 0 0 0 0 0 
0 0 0 0 0 0 0 0 0 
0 0 0 0 0 0 0 0 0 
0 0 0 0 0 0 0 0 0 
0 0 0 0 0 0 0 0 0 
0 0 0 0 0 0 0 0 0 
0 0 0 0 0 0 0 0 0 
0 0 0 0 0 0 0 0 0 
0 0 0 0 0 0 0 0 0 
0 0 0 0 0 0 0 0 0 
0 0 0 0 0 0 0 0 0 
0 0 0 0 0 0 0 0 0 
0 0 0 0 0 0 0 0 0 
0 0 0 0 0 0 0 0 0 
0 0 0 0 0 0 0 0 0 
0 0 0 0 0 0 0 0 0 
0 0 0 0 0 0 0 0 0 
0 0 0 0 0 0 0 0 0 
0 0 0 0 0 0 0 0 0 
0 0 0 0 0 0 0 0 0 
0 0 0 0 0 0 0 0 0 
0 0 0 0 0 0 0 0 0 
0 0 0 0 0 0 0 0 0 
0 0 0 0 0 0 0 0 0 
0 0 0 0 0 0 0 0 0 
0 0 0 0 0 0 0 0 0 
0 0 0 0 0 0 0 0 0 
0 0 0 0 0 0 0 0 0 
0 0 0 0 0 0 0 0 0 
0 0 0 0 0 0 0 0 0 
0 0 0 0 0 0 0 0 0 
0 0 0 0 0 0 0 0 0 
0 0 0 0 0 0 0 0 0 
0 0 0 0 0 0 0 0 0 
0 0 0 0 0 0 0 0 0 
0 0 0 0 0 0 0 0 0 
0 0 0 0 0 0 0 0 0 
0 0 0 0 0 0 0 0 0 
0 0 0 0 0 0 0 0 0 
0 0 0 0 0 0 0 0 0 
0 0 0 0 0 0 0 0 0 
0 0 0 0 0 0 0 0 0 
0 0 0 0 0 0 0 0 0 
0 0 0 0 0 0 0 0 0 
0 0 0 0 0 0 0 0 0 
0 0 0 0 0 0 0 0 0 
0 0 0 0 0 0 0 0 0 
0 0 0 0 0 0 0 0 0 
0 0 0 0 0 0 0 0 0 
0 0 0 0 0 0 0 0 0 
0 0 0 0 0 0 0 0 0 
0 0 0 0 0 0 0 0 0 
0 0 0 0 0 0 0 0 0 
0 0 0 0 0 0 0 0 0 
0 0 0 0 0 0 0 0 0 
0 0 0 0 0 0 0 0 0 
0 0 0 0 0 0 0 0 0 
0 0 0 0 0 0 0 0 0 
0 0 0 0 0 0 0 0 0 
0 0 0 0 0 0 0 0 0 
0 0 0 0 0 0 0 0 0 
0 0 0 0 0 0 0 0 0 
0 0 0 0 0 0 0 0 0 
0 0 0 0 0 0 0 0 0 
0 0 0 0 0 0 0 0 0 
0 0 0 0 0 0 0 0 0 
0 0 0 0 0 0 0 0 0 
0 0 0 0 0 0 0 0 0 
0 0 0 0 0 0 0 0 0 
0 0 0 0 0 0 0 0 0 
0 0 0 0 0 0 0 0 0 
0 0 0 0 0 0 0 0 0 
0 0 0 0 0 0 0 0 0 
0 0 0 0 0 0 0 0 0 
0 0 0 0 0 0 0 0 0 
0 0 0 0 0 0 0 0 0 
0 0 0 0 0 0 0 0 0 
0 0 0 0 0 0 0 0 0 
0 0 0 0 0 0 0 0 0 
0 0 0 0 0 0 0 0 0 
0 0 0 0 0 0 0 0 0 
0 0 0 0 0 0 0 0 0 
0 0 0 0 0 0 0 0 0 
0 0 0 0 0 0 0 0 0 
0 0 0 0 0 0 0 0 0 
0 0 0 0 0 0 0 0 0 
0 0 0 0 0 0 0 0 0 
0 0 0 0 0 0 0 0 0 
0 0 0 0 0 0 0 0 0 
0 0 0 0 0 0 0 0 0 
0 0 0 0 0 0 0 0 0 
0 0 0 0 0 0 0 0 0 
0 0 0 0 0 0 0 0 0 
0 0 0 0 0 0 0 0 0 
0 0 0 0 0 0 0 0 0 
0 0 0 0 0 0 0 0 0 
0 0 0 0 0 0 0 0 0 
0 0 0 0 0 0 0 0 0 
0 0 0 0 0 0 0 0 0 

v 3 1500 double
0.232884 -0.239425 -5.16422e-09 -0.170318 0.0872567 3.81252e-06 -0.231752 -0.507886 0.373065 
0.540645 -0.94601 0.817167 -0.951593 -0.561898 -0.312733 -0.0738622 -0.81079 -0.0125652 
-0.466515 -1.13588 0.0609755 0 0 1.41726 -0.525897 -0.80541 0.299543 
0.869745 -0.177318 0.420018 0.207405 -0.995865 0.00733531 0.241222 0.337891 0.254681 
-0.136078 -0.278559 -0.0290072 0.267145 -0.141334 0.0114528 -0.0493862 0.328792 0.365468 
-0.400816 0.23819 0.629752 -0.0953711 -0.171094 0.346572 -0.277659 -0.31765 0.221276 
-0.0650712 -0.0750254 -0.194045 0.0370216 -0.198297 0.164894 -0.199287 -0.121322 0.860195 