# vtk DataFile Version 4.0
Generated by LIGGGHTS
ASCII
DATASET POLYDATA
POINTS 1500 float
-0.0576173 -0.0743248 0.253345 -0.0331572 -0.0728078 0.252959 -0.0161688 -0.0483063 0.252507 
-0.0833193 -0.0478247 0.251978 -0.078839 -0.0468911 0.251144 -0.0237488 -0.0453433 0.252493 
-0.0176136 -0.0310101 0.252363 -0.0557225 -0.0284283 0.251498 -0.0933548 -0.0137677 0.251519 
-0.0405719 -0.0913576 0.2562 -0.0205981 -0.0926799 0.253925 -0.0591823 -0.0766434 0.256378 
-0.0541902 -0.0747107 0.254608 -0.0680228 -0.0596033 0.255767 -0.0470134 -0.0536112 0.256539 
-0.0539983 -0.0496909 0.255398 -0.0366121 -0.040279 0.254059 -0.0179164 -0.0214176 0.254431 
-0.0745948 -0.0153957 0.255487 -0.0805862 -0.012136 0.253931 -0.0824067 -0.00913099 0.254501 
-0.0142914 -0.0962173 0.258596 -0.0260294 -0.0760942 0.25949 -0.0198883 -0.0633021 0.259159 
-0.00930277 -0.0516699 0.259374 -0.00368025 -0.0539438 0.257598 -0.0783156 -0.0495159 0.259566 
-0.00622636 -0.0464162 0.259193 -0.0924694 -0.0329229 0.257458 -0.0193034 -0.0323038 0.257941 
-0.0132761 -0.0311791 0.258227 -0.0296081 -0.023884 0.259113 -0.0237946 -0.0163041 0.258734 
-0.0467192 -0.00982527 0.257632 -0.0319516 -0.0109858 0.257176 -0.0607983 -0.037586 0.260175 
-0.0135078 -0.0249958 0.260476 -0.0574056 -0.0151307 0.260759 -0.0150532 -0.0985232 0.272284 
-0.00442071 -0.0989228 0.270735 -0.00524128 -0.0901406 0.270966 -0.0446172 -0.0816735 0.271666 
-0.0663279 -0.0735632 0.272571 -0.0769777 -0.0636221 0.270558 -0.0430273 -0.0599319 0.272794 
-0.0637862 -0.0550124 0.270905 -0.0457808 -0.0371265 0.271756 -0.057454 -0.0292782 0.272452 
-0.0201064 -0.0277318 0.271407 -0.0287209 -0.0129342 0.271697 -0.0831625 -0.0117564 0.271293 
-0.00689026 -0.00462272 0.270873 -0.0565941 -0.0767697 0.273393 -0.0339429 -0.0781498 0.273868 
-0.0714441 -0.0606144 0.27565 -0.0126751 -0.0305562 0.274531 -0.00320885 -0.0311748 0.274772 
-0.00269085 -0.0250817 0.275409 -0.0725359 -0.0110351 0.273587 -0.0237943 -0.011123 0.275855 
-0.0662525 -0.00639891 0.275638 -0.00821128 -0.00694132 0.274013 -0.0215032 -0.00422246 0.273588 
-0.0438723 -0.0617437 0.277642 -0.0147415 -0.0611842 0.277944 -0.0369579 -0.051647 0.277234 
-0.0829208 -0.0496712 0.277919 -0.0596378 -0.03212 0.27622 -0.00341688 -0.02743 0.278731 
-0.0708942 -0.0196133 0.276293 -0.0169165 -0.0160779 0.278115 -0.0381098 -0.0115973 0.278718 
-0.0119091 -0.0556677 0.279622 -0.0694438 -0.041935 0.280174 -0.0710139 -0.0311185 0.279416 
-0.087387 -0.0134533 0.279297 -0.0335877 -0.00813431 0.278947 -0.0149635 -0.091854 0.289574 
-0.0435275 -0.0664894 0.289809 -0.002134 -0.0660668 0.29022 -0.0361374 -0.0608252 0.289759 
-0.0613287 -0.0506631 0.289207 -0.0807125 -0.0348532 0.29083 -0.0160788 -0.0360256 0.290375 
-0.00577946 -0.0353659 0.289123 -0.051968 -0.0265824 0.291507 -0.0544132 -0.0221924 0.289925 
-0.0670915 -0.0063709 0.291056 -0.0609612 -0.0745018 0.293504 -0.0663333 -0.0638866 0.294463 
-0.0501021 -0.0652314 0.294222 -0.0631793 -0.0542847 0.292267 -0.0172455 -0.045472 0.29386 
-0.0590909 -0.0402183 0.293653 -0.0260391 -0.0394328 0.293837 -0.0160196 -0.0419014 0.294929 
-0.0342915 -0.0378855 0.294394 -0.0277814 -0.0222849 0.294346 -0.0157032 -0.0239641 0.292149 
-0.0279952 -0.0151699 0.292545 -0.0369722 -0.0915995 0.29729 -0.0484842 -0.0740125 0.295818 
-0.0613357 -0.0692756 0.297112 -0.0718489 -0.0647002 0.297024 -0.0508875 -0.0663065 0.297253 
-0.00425197 -0.0627788 0.296216 -0.0239162 -0.0591555 0.295999 -0.0396117 -0.0544431 0.296066 
-0.081005 -0.0504682 0.296763 -0.031686 -0.0461313 0.295694 -0.0313403 -0.0357064 0.296807 
-0.0423533 -0.0311614 0.295649 -0.0191782 -0.0280843 0.2974 -0.0343197 -0.0104605 0.29766 
-0.0301895 -0.0945026 0.298077 -0.0472436 -0.0238651 0.298527 -0.0194795 -0.092556 0.307133 
-0.0275346 -0.0738796 0.306617 -0.0840036 -0.0483182 0.307522 -0.0544386 -0.0497461 0.30766 
-0.0523733 -0.0379773 0.307586 -0.00501098 -0.0194672 0.307373 -0.0215096 -0.0124165 0.307499 
-0.0141485 -0.0932871 0.308319 -0.0507101 -0.0841241 0.308635 -0.0396013 -0.0789344 0.310859 
-0.0678748 -0.0719268 0.308553 -0.0663214 -0.064358 0.309519 -0.0559979 -0.0575567 0.310465 
-0.0448175 -0.0468839 0.308193 -0.0126643 -0.0481329 0.309025 -0.0468697 -0.0394753 0.309843 
-0.00425638 -0.0370542 0.308951 -0.0406155 -0.0239934 0.310194 -0.0289892 -0.0211327 0.308274 
-0.0104476 -0.0922258 0.31203 -0.0381144 -0.0890063 0.313018 -0.0278447 -0.0858948 0.312639 
-0.0173134 -0.0858773 0.312014 -0.0047232 -0.082753 0.312934 -0.0244218 -0.0564246 0.31316 
-0.0307698 -0.0476786 0.312567 -0.0448233 -0.0446673 0.313565 -0.0114907 -0.0246821 0.31269 
-0.00751019 -0.0238431 0.312925 -0.0801632 -0.0024415 0.312557 -0.0342217 -0.0639028 0.314611 
-0.0203582 -0.0599576 0.315217 -0.044806 -0.0537933 0.315593 -0.0334167 -0.0345334 0.315771 
-0.0238668 -0.0300174 0.31573 -0.0750591 -0.0178147 0.314881 -0.0127694 -0.0151134 0.314867 
-0.090249 -0.0143399 0.314884 -0.0117509 -0.0968575 0.323939 -0.0421106 -0.0531973 0.32371 
-0.0723532 -0.0395068 0.323222 -0.0870493 -0.0371325 0.323797 -0.0710558 -0.0343718 0.323699 
-0.00772435 -0.0231566 0.322985 -0.0109232 -0.0863541 0.327027 -0.00419383 -0.0857427 0.324543 
-0.0594796 -0.0738835 0.326365 -0.0166874 -0.0651975 0.324991 -0.0121346 -0.0467226 0.325689 
-0.0525282 -0.0418385 0.324397 -0.0608338 -0.03405 0.324459 -0.0857624 -0.00933904 0.326223 
-0.0176895 -0.00725609 0.327042 -0.0254062 -0.00209237 0.325714 -0.0629602 -0.0715202 0.328428 
-0.0390951 -0.0711099 0.327932 -0.0507562 -0.0602448 0.328966 -0.0110344 -0.0554139 0.328132 
-0.0262599 -0.0509272 0.328935 -0.0669927 -0.0461491 0.329566 -0.0358568 -0.0453532 0.327289 
-0.0249147 -0.0407586 0.329463 -0.0172328 -0.0324053 0.328698 -0.0950038 -0.0287171 0.327535 
-0.0101998 -0.0281215 0.328485 -0.0704895 -0.0177157 0.327532 -0.0285128 -0.015257 0.32985 
-0.0892847 -0.00760011 0.328853 -0.0402395 -0.00576241 0.327469 -0.0219839 -0.0833349 0.331343 
-0.0140805 -0.0517235 0.330658 -0.0809984 -0.0405437 0.330581 -0.00597579 -0.0351229 0.331371 
-0.0556035 -0.0280068 0.331384 -0.00320212 -0.0180822 0.331577 -0.0781759 -0.00172019 0.331239 
-0.0646042 -0.00298797 0.330466 -0.0393875 -0.0849045 0.338829 -0.059581 -0.078365 0.339733 
-0.0609134 -0.0720759 0.339844 -0.00738143 -0.0597361 0.339214 -0.0131168 -0.0543456 0.339095 
-0.0412535 -0.0483123 0.339301 -0.0218807 -0.0483181 0.339548 -0.0827239 -0.0403152 0.33998 
-0.0227484 -0.03229 0.338008 -0.00442224 -0.0245667 0.338529 -0.0504029 -0.0212287 0.338638 
-0.0700554 -0.0203355 0.339939 -0.0289875 -0.0924232 0.342051 -0.0286421 -0.0874017 0.341796 
-0.0368998 -0.075586 0.340332 -0.0152357 -0.0658331 0.342072 -0.0760077 -0.0611337 0.340262 
-0.0722173 -0.0560337 0.341939 -0.0218573 -0.0560158 0.341918 -0.0058521 -0.0562889 0.342972 
-0.0664983 -0.0362026 0.342091 -0.00226896 -0.0344006 0.340696 -0.0691933 -0.0321216 0.341049 
-0.0162749 -0.0315563 0.341058 -0.0288795 -0.0784039 0.344366 -0.0207995 -0.0772848 0.345162 
-0.053262 -0.0744535 0.343727 -0.0353699 -0.0620467 0.345888 -0.0712179 -0.0598039 0.345306 
-0.0751089 -0.0550562 0.344856 -0.0830696 -0.0511345 0.345916 -0.00799786 -0.0199527 0.343224 
-0.0314519 -0.0115455 0.343237 -0.0197828 -0.0900816 0.34761 -0.0305984 -0.067984 0.346999 
-0.0280985 -0.0507291 0.347306 -0.065182 -0.0140542 0.346902 -0.0525979 -0.0126555 0.347635 
-0.0842036 -0.0091279 0.346494 -0.0772808 -0.0592248 0.353028 -0.0726334 -0.0498244 0.352314 
-0.0882755 -0.0466527 0.353034 -0.034506 -0.0423035 0.352726 -0.0871075 -0.0151305 0.352413 
-0.0105616 -0.00892479 0.352268 -0.0362099 -0.0806016 0.35505 -0.0491626 -0.0750031 0.354402 
-0.0698914 -0.065423 0.355795 -0.0114331 -0.0556712 0.355584 -0.0529157 -0.0534161 0.355779 
-0.0364998 -0.052673 0.354663 -0.0638751 -0.0482696 0.355464 -0.0365292 -0.0463424 0.354549 
-0.0775412 -0.0352398 0.354657 -0.0720076 -0.0310205 0.355954 -0.00662244 -0.00343123 0.355293 
-0.00297289 -0.0653383 0.358106 -0.036548 -0.0627554 0.35911 -0.0707594 -0.053362 0.356605 
-0.0171091 -0.0529382 0.358853 -0.0739776 -0.0408897 0.358845 -0.0116762 -0.0417176 0.357349 
-0.0784155 -0.0289436 0.356615 -0.0736123 -0.00164538 0.356768 -0.0157184 -0.0787242 0.36046 
-0.00729345 -0.0809734 0.36015 -0.0621926 -0.0712093 0.360748 -0.0213157 -0.0531752 0.360687 
-0.0281457 -0.0454633 0.362042 -0.0375821 -0.0420309 0.36079 -0.0305669 -0.0373061 0.361801 
-0.0121461 -0.0386698 0.359865 -0.0418358 -0.0350689 0.36193 -0.0185477 -0.0313572 0.360181 
-0.0207367 -0.0213792 0.36006 -0.0143288 -0.0235798 0.36157 -0.0988044 -0.0048382 0.360608 
-0.037727 -0.0781042 0.365892 -0.0277958 -0.064324 0.366242 -0.0515722 -0.073933 0.366403 
-0.074448 -0.0481875 0.366814 -0.0341609 -0.0414581 0.367047 -0.0638923 -0.0372324 0.369022 
-0.0373854 -0.036596 0.368775 -0.0374447 -0.0325562 0.368345 -0.0886545 -0.0165863 0.369075 
-0.0765938 -0.0127975 0.366775 -0.0724945 -0.0143552 0.368829 -0.00580187 -0.012089 0.36764 
-0.0432194 -0.0881034 0.37029 -0.0509716 -0.0794334 0.371872 -0.061669 -0.0710808 0.370101 
-0.0458402 -0.0363566 0.370989 -0.0325003 -0.0333406 0.370044 -0.0109436 -0.0283954 0.371466 
-0.0786234 -0.0230231 0.370758 -0.0256514 -0.02288 0.371096 -0.0667056 -0.0203816 0.370178 
-0.0967939 -0.0159423 0.371415 -0.0332489 -0.0140985 0.370268 -0.0553882 -0.00992087 0.371595 
-0.0156071 -0.008362 0.371577 -0.0403517 -0.090583 0.372736 -0.0393153 -0.0722508 0.373673 
-0.0599728 -0.0629806 0.374143 -0.07706 -0.0470832 0.372913 -0.0195303 -0.0459691 0.375301 
-0.00577415 -0.0461782 0.373931 -0.0728888 -0.041745 0.374729 -0.00246475 -0.0249788 0.37381 
-0.0465888 -0.0185061 0.372472 -0.0748626 -0.0151909 0.374213 -0.0412099 -0.0146434 0.374466 
-0.0883802 -0.00663562 0.373103 -0.00542685 -0.00902624 0.375199 -0.0463644 -0.0461945 0.378943 
-0.00200731 -0.0369249 0.378343 -0.0435197 -0.0356693 0.378595 -0.0190741 -0.0775783 0.382281 
-0.0637156 -0.0688268 0.380903 -0.0484119 -0.0581469 0.380553 -0.0759657 -0.0559207 0.382055 
[...]
POINT_DATA 1500
FIELD FieldData 7
id 1 1500 int
11 7 27 25 23 34 2 35 36 
24 10 38 3 16 15 4 19 22 
32 26 6 30 33 9 8 28 37 
18 20 13 5 31 1 21 29 12 
14 17 153 152 167 176 154 155 172 
178 181 156 168 158 179 160 157 151 
186 183 161 180 175 159 188 170 189 
187 173 163 174 162 184 171 166 182 
185 165 169 177 164 319 329 308 314 
309 337 305 326 338 317 333 307 328 
320 301 335 306 327 311 339 324 322 
321 318 330 336 304 332 310 323 312 
315 303 325 313 331 334 316 302 455 
471 458 451 466 476 459 470 480 462 
486 463 477 457 469 467 484 483 461 
465 464 472 473 460 475 474 454 488 
479 452 487 478 482 453 481 456 485 
468 638 615 612 629 603 626 633 636 
618 630 628 611 619 616 605 625 623 
635 634 613 620 631 601 621 632 602 
609 622 607 627 624 610 606 617 614 
639 637 608 604 786 771 757 789 776 
764 751 767 761 768 766 778 772 785 
787 784 755 783 758 756 752 753 788 
765 762 759 782 775 779 774 777 770 
769 760 754 780 781 773 763 913 927 
915 905 925 917 908 924 922 920 914 
934 910 928 926 931 904 909 936 918 
937 929 932 930 907 916 902 919 912 
935 923 901 933 903 911 921 938 906 
1083 1051 1056 1085 1076 1055 1072 1086 1084 
1077 1074 1087 1082 1071 1088 1060 1080 1068 
1079 1075 1057 1067 1078 1058 1054 1069 1073 
1081 1065 1063 1066 1064 1061 1052 1062 1053 
1059 1070 1220 1216 1226 1219 1209 1211 1228 
1203 1223 1221 1238 1222 1201 1204 1205 1210 
1213 1217 1218 1207 1208 1206 1214 1237 1224 
1202 1227 1233 1229 1236 1215 1235 1225 1234 
1232 1212 1230 1231 1352 1359 1381 1353 1363 
1372 1365 1376 1358 1374 1368 1364 1383 1362 
1355 1354 1388 1377 1366 1356 1370 1385 1371 
1378 1357 1375 1373 1380 1387 1351 1382 1369 
1386 1360 1384 1379 1361 1367 55 76 45 
68 60 43 41 56 62 50 64 75 
40 66 44 72 53 73 46 58 47 
59 52 57 61 54 49 67 48 65 
63 42 51 69 39 70 71 74 192 
214 226 203 217 212 209 224 200 205 
201 220 218 204 197 202 225 198 193 
219 213 222 216 199 194 215 206 190 
223 195 211 221 191 207 208 210 196 
347 344 355 350 373 348 371 357 374 
343 368 375 369 340 361 345 353 349 
351 367 354 365 352 356 370 364 358 
362 341 363 359 346 372 342 360 376 
366 510 504 517 495 515 494 492 521 
501 493 525 506 524 514 508 519 489 
496 513 491 523 499 511 516 518 497 
520 512 490 500 509 505 502 522 498 
507 503 660 675 670 656 672 662 671 
647 676 654 640 642 658 659 664 646 
644 663 666 668 651 645 655 649 652 
653 661 674 650 665 643 667 669 657 
673 677 641 648 810 813 818 825 792 
802 801 800 826 806 817 808 805 791 
819 790 823 811 822 795 820 807 797 
816 809 798 824 793 814 804 794 815 
803 821 812 799 796 944 943 973 972 
954 949 965 961 950 941 974 939 970 
967 971 959 968 958 975 964 951 947 
952 940 963 969 962 946 957 942 945 
960 956 966 953 955 948 1120 1093 1115 
1112 1121 1119 1113 1091 1096 1111 1106 1099 
1124 1103 1116 1125 1123 1098 1095 1105 1101 
1110 1107 1117 1104 1089 1092 1108 1094 1114 
1109 1122 1118 1090 1102 1242 1275 1241 1268 
1097 1100 1260 1252 1261 1251 1271 1263 1258 
1239 1243 1257 1246 1247 1259 1245 1276 1269 
1248 1265 1266 1256 1240 1249 1272 1264 1244 
1273 1253 1250 1270 1267 1262 1255 1254 1274 
1404 1410 1415 1396 1402 1400 1416 1425 1411 
1406 1394 1399 1417 1393 1395 1401 1421 1390 
1409 1422 1418 1391 1389 1403 1426 1414 1392 
1408 1397 1424 1405 1420 1413 1412 1398 1407 
1423 1419 107 98 102 94 111 101 106 
96 112 105 104 87 95 109 85 99 
80 110 79 90 84 77 108 78 93 
92 100 97 89 91 88 82 103 81 
86 83 254 249 258 231 239 246 244 
237 255 262 253 263 257 261 234 235 
233 238 250 230 227 251 242 232 228 
247 252 260 245 240 259 256 243 229 
241 248 236 398 391 386 406 394 382 
404 399 411 408 378 409 401 405 384 
395 412 410 400 380 387 402 396 392 
393 379 388 390 385 383 377 381 413 
389 403 407 397 550 559 531 547 544 
560 557 551 558 555 540 554 538 548 
532 542 536 556 534 552 541 543 545 
529 535 537 527 549 526 546 553 530 
561 528 533 539 695 686 701 680 693 
685 682 706 681 687 679 713 709 703 
696 707 702 689 704 698 683 691 699 
690 684 711 705 712 700 694 710 692 
678 708 697 688 833 848 828 830 829 
852 851 837 844 846 854 856 842 862 
847 853 835 827 858 831 855 834 860 
849 838 839 840 841 863 861 843 850 
859 836 845 857 832 982 1006 995 993 
991 979 1008 994 984 1003 988 1007 1012 
992 997 996 985 978 981 980 977 1001 
999 1002 1005 989 1010 990 1011 1000 998 
986 987 983 976 1009 1004 1133 1152 1159 
1136 1142 1139 1151 1141 1145 1128 1147 1127 
1148 1163 1153 1132 1143 1138 1154 1156 1146 
1160 1149 1131 1162 1135 1157 1150 1144 1126 
1130 1155 1161 1134 1129 1158 1140 1137 1294 
1277 1297 1309 1286 1310 1301 1306 1303 1278 
1289 1302 1280 1299 1298 1304 1292 1281 1296 
1307 1295 1283 1311 1279 1308 1282 1284 1293 
1285 1312 1300 1291 1287 1290 1288 1305 1451 
1434 1458 1457 1440 1431 1428 1444 1443 1448 
1438 1432 1449 1454 1461 1429 1452 1427 1455 
1430 1433 1445 1437 1459 1462 1441 1439 1450 
1435 1453 1447 1460 1442 1456 1436 1446 142 
147 117 116 143 144 148 134 136 140 
122 128 125 139 150 149 126 119 137 
121 115 114 146 131 129 145 133 120 
132 118 135 123 124 141 138 113 130 
127 277 292 271 287 300 299 265 274 
264 291 279 280 270 281 284 283 276 
268 286 267 293 282 289 275 272 297 
295 269 290 294 285 278 266 296 273 
288 298 447 415 443 439 433 424 445 
421 417 419 422 442 425 435 430 420 
429 434 426 416 438 449 414 431 423 
440 428 444 432 427 436 450 446 448 
441 437 418 573 590 593 587 579 567 
585 591 584 597 570 568 582 572 588 
564 578 571 589 562 598 600 596 586 
566 563 574 569 599 577 576 581 592 
580 595 575 565 583 594 729 733 720 
723 717 730 746 742 739 719 744 738 
731 747 736 728 745 722 725 740 749 
714 750 726 741 718 724 748 734 743 
737 721 735 716 715 727 732 893 883 
900 896 872 897 877 891 889 866 879 
880 878 894 868 875 864 888 890 876 
898 892 885 871 874 869 899 873 881 
870 886 884 882 867 895 865 887 1027 
1022 1024 1029 1025 1035 1050 1047 1015 1023 
1019 1049 1041 1043 1028 1034 1013 1014 1031 
1030 1048 1044 1017 1032 1018 1045 1039 1026 
1042 1037 1038 1036 1033 1021 1016 1020 1040 
1046 1181 1174 1191 1167 1193 1180 1165 1189 
1185 1182 1198 1199 1166 1183 1197 1184 1187 
1196 1186 1168 1164 1178 1173 1170 1192 1169 
1195 1188 1175 1194 1172 1177 1176 1179 1190 
1171 1200 1331 1343 1314 1321 1334 1345 1327 
1325 1313 1326 1316 1317 1320 1341 1329 1344 
1336 1323 1332 1319 1342 1322 1318 1340 1350 
1346 1330 1328 1337 1338 1348 1339 1324 1349 
1335 1315 1333 1347 1493 1490 1489 1478 1497 
1484 1474 1498 1470 1481 1471 1473 1480 1466 
1479 1469 1495 1491 1496 1475 1487 1482 1494 
1500 1499 1465 1488 1485 1486 1476 1468 1483 
1492 1467 1477 1472 1463 1464 
type 1 1500 int
1 1 1 1 1 1 1 1 1 
1 1 1 1 1 1 1 1 1 
1 1 1 1 1 1 1 1 1 
1 1 1 1 1 1 1 1 1 
1 1 1 1 1 1 1 1 1 
1 1 1 1 1 1 1 1 1 
1 1 1 1 1 1 1 1 1 
1 1 1 1 1 1 1 1 1 
1 1 1 1 1 1 1 1 1 
1 1 1 1 1 1 1 1 1 
1 1 1 1 1 1 1 1 1 
1 1 1 1 1 1 1 1 1 
1 1 1 1 1 1 1 1 1 
1 1 1 1 1 1 1 1 1 
1 1 1 1 1 1 1 1 1 
1 1 1 1 1 1 1 1 1 
1 1 1 1 1 1 1 1 1 
1 1 1 1 1 1 1 1 1 
1 1 1 1 1 1 1 1 1 
1 1 1 1 1 1 1 1 1 
1 1 1 1 1 1 1 1 1 
1 1 1 1 1 1 1 1 1 
1 1 1 1 1 1 1 1 1 
1 1 1 1 1 1 1 1 1 
1 1 1 1 1 1 1 1 1 
1 1 1 1 1 1 1 1 1 
1 1 1 1 1 1 1 1 1 
1 1 1 1 1 1 1 1 1 
1 1 1 1 1 1 1 1 1 
1 1 1 1 1 1 1 1 1 
1 1 1 1 1 1 1 1 1 
1 1 1 1 1 1 1 1 1 
1 1 1 1 1 1 1 1 1 
1 1 1 1 1 1 1 1 1 
1 1 1 1 1 1 1 1 1 
1 1 1 1 1 1 1 1 1 
1 1 1 1 1 1 1 1 1 
1 1 1 1 1 1 1 1 1 
1 1 1 1 1 1 1 1 1 
1 1 1 1 1 1 1 1 1 
1 1 1 1 1 1 1 1 1 
1 1 1 1 1 1 1 1 1 
1 1 1 1 1 1 1 1 1 
1 1 1 1 1 1 1 1 1 
1 1 1 1 1 1 1 1 1 
1 1 1 1 1 1 1 1 1 
1 1 1 1 1 1 1 1 1 
1 1 1 1 1 1 1 1 1 
1 1 1 1 1 1 1 1 1 
1 1 1 1 1 1 1 1 1 
1 1 1 1 1 1 1 1 1 
1 1 1 1 1 1 1 1 1 
1 1 1 1 1 1 1 1 1 
1 1 1 1 1 1 1 1 1 
1 1 1 1 1 1 1 1 1 
1 1 1 1 1 1 1 1 1 
1 1 1 1 1 1 1 1 1 
1 1 1 1 1 1 1 1 1 
1 1 1 1 1 1 1 1 1 
1 1 1 1 1 1 1 1 1 
1 1 1 1 1 1 1 1 1 
1 1 1 1 1 1 1 1 1 
1 1 1 1 1 1 1 1 1 
1 1 1 1 1 1 1 1 1 
1 1 1 1 1 1 1 1 1 
1 1 1 1 1 1 1 1 1 
1 1 1 1 1 1 1 1 1 
1 1 1 1 1 1 1 1 1 
1 1 1 1 1 1 1 1 1 
1 1 1 1 1 1 1 1 1 
1 1 1 1 1 1 1 1 1 
1 1 1 1 1 1 1 1 1 
1 1 1 1 1 1 1 1 1 
1 1 1 1 1 1 1 1 1 
1 1 1 1 1 1 1 1 1 
1 1 1 1 1 1 1 1 1 
1 1 1 1 1 1 1 1 1 
1 1 1 1 1 1 1 1 1 
1 1 1 1 1 1 1 1 1 
1 1 1 1 1 1 1 1 1 
1 1 1 1 1 1 1 1 1 
1 1 1 1 1 1 1 1 1 
1 1 1 1 1 1 1 1 1 
1 1 1 1 1 1 1 1 1 
1 1 1 1 1 1 1 1 1 
1 1 1 1 1 1 1 1 1 
1 1 1 1 1 1 1 1 1 
1 1 1 1 1 1 1 1 1 
1 1 1 1 1 1 1 1 1 
1 1 1 1 1 1 1 1 1 
1 1 1 1 1 1 1 1 1 
1 1 1 1 1 1 1 1 1 
1 1 1 1 1 1 1 1 1 
1 1 1 1 1 1 1 1 1 
1 1 1 1 1 1 1 1 1 
1 1 1 1 1 1 1 1 1 
1 1 1 1 1 1 1 1 1 
1 1 1 1 1 1 1 1 1 
1 1 1 1 1 1 1 1 1 
1 1 1 1 1 1 1 1 1 
1 1 1 1 1 1 1 1 1 
1 1 1 1 1 1 1 1 1 
1 1 1 1 1 1 1 1 1 
1 1 1 1 1 1 1 1 1 
1 1 1 1 1 1 1 1 1 
1 1 1 1 1 1 1 1 1 
1 1 1 1 1 1 1 1 1 
1 1 1 1 1 1 1 1 1 
1 1 1 1 1 1 1 1 1 
1 1 1 1 1 1 1 1 1 
1 1 1 1 1 1 1 1 1 
1 1 1 1 1 1 1 1 1 
1 1 1 1 1 1 1 1 1 
1 1 1 1 1 1 1 1 1 
1 1 1 1 1 1 1 1 1 
1 1 1 1 1 1 1 1 1 
1 1 1 1 1 1 1 1 1 
1 1 1 1 1 1 1 1 1 
1 1 1 1 1 1 1 1 1 
1 1 1 1 1 1 1 1 1 
1 1 1 1 1 1 1 1 1 
1 1 1 1 1 1 1 1 1 
1 1 1 1 1 1 1 1 1 
1 1 1 1 1 1 1 1 1 
1 1 1 1 1 1 1 1 1 
1 1 1 1 1 1 1 1 1 
1 1 1 1 1 1 1 1 1 
1 1 1 1 1 1 1 1 1 
1 1 1 1 1 1 1 1 1 
1 1 1 1 1 1 1 1 1 
1 1 1 1 1 1 1 1 1 
1 1 1 1 1 1 1 1 1 
1 1 1 1 1 1 1 1 1 
1 1 1 1 1 1 1 1 1 
1 1 1 1 1 1 1 1 1 
1 1 1 1 1 1 1 1 1 
1 1 1 1 1 1 1 1 1 
1 1 1 1 1 1 1 1 1 
1 1 1 1 1 1 1 1 1 
1 1 1 1 1 1 1 1 1 
1 1 1 1 1 1 1 1 1 
1 1 1 1 1 1 1 1 1 
1 1 1 1 1 1 1 1 1 
1 1 1 1 1 1 1 1 1 
1 1 1 1 1 1 1 1 1 
1 1 1 1 1 1 1 1 1 
1 1 1 1 1 1 1 1 1 
1 1 1 1 1 1 1 1 1 
1 1 1 1 1 1 1 1 1 
1 1 1 1 1 1 1 1 1 
1 1 1 1 1 1 1 1 1 
1 1 1 1 1 1 1 1 1 
1 1 1 1 1 1 1 1 1 
1 1 1 1 1 1 1 1 1 
1 1 1 1 1 1 1 1 1 
1 1 1 1 1 1 1 1 1 
1 1 1 1 1 1 1 1 1 
1 1 1 1 1 1 1 1 1 
1 1 1 1 1 1 1 1 1 
1 1 1 1 1 1 1 1 1 
1 1 1 1 1 1 1 1 1 
1 1 1 1 1 1 1 1 1 
1 1 1 1 1 1 1 1 1 
1 1 1 1 1 1 1 1 1 
1 1 1 1 1 1 1 1 1 
1 1 1 1 1 1 1 1 1 
1 1 1 1 1 1 
i 3 1500 int
0 0 0 0 0 0 0 0 0 
0 0 0 0 0 0 0 0 0 
0 0 0 0 0 0 0 0 0 
0 0 0 0 0 0 0 0 0 
0 0 0 0 0 0 0 0 0 
0 0 0 0 0 0 0 0 0 
0 0 0 0 0 0 0 0 0 
0 0 0 0 0 0 0 0 0 
0 0 0 0 0 0 0 0 0 
0 0 0 0 0 0 0 0 0 
0 0 0 0 0 0 0 0 0 
0 0 0 0 0 0 0 0 0 
0 0 0 0 0 0 0 0 0 
0 0 0 0 0 0 0 0 0 
0 0 0 0 0 0 0 0 0 
0 0 0 0 0 0 0 0 0 
0 0 0 0 0 0 0 0 0 
0 0 0 0 0 0 0 0 0 
0 0 0 0 0 0 0 0 0 
0 0 0 0 0 0 0 0 0 
0 0 0 0 0 0 0 0 0 
0 0 0 0 0 0 0 0 0 
0 0 0 0 0 0 0 0 0 
0 0 0 0 0 0 0 0 0 
0 0 0 0 0 0 0 0 0 
0 0 0 0 0 0 0 0 0 
0 0 0 0 0 0 0 0 0 
0 0 0 0 0 0 0 0 0 
0 0 0 0 0 0 0 0 0 
0 0 0 0 0 0 0 0 0 
0 0 0 0 0 0 0 0 0 
0 0 0 0 0 0 0 0 0 
0 0 0 0 0 0 0 0 0 
0 0 0 0 0 0 0 0 0 
0 0 0 0 0 0 0 0 0 
0 0 0 0 0 0 0 0 0 
0 0 0 0 0 0 0 0 0 
0 0 0 0 0 0 0 0 0 
0 0 0 0 0 0 0 0 0 
0 0 0 0 0 0 0 0 0 
0 0 0 0 0 0 0 0 0 
0 0 0 0 0 0 0 0 0 
0 0 0 0 0 0 0 0 0 
0 0 0 0 0 0 0 0 0 
0 0 0 0 0 0 0 0 0 
0 0 0 0 0 0 0 0 0 
0 0 0 0 0 0 0 0 0 
0 0 0 0 0 0 0 0 0 
0 0 0 0 0 0 0 0 0 
0 0 0 0 0 0 0 0 0 
0 0 0 0 0 0 0 0 0 
0 0 0 0 0 0 0 0 0 
0 0 0 0 0 0 0 0 0 
0 0 0 0 0 0 0 0 0 
0 0 0 0 0 0 0 0 0 
0 0 0 0 0 0 0 0 0 
0 0 0 0 0 0 0 0 0 
0 0 0 0 0 0 0 0 0 
0 0 0 0 0 0 0 0 0 
0 0 0 0 0 0 0 0 0 
0 0 0 0 0 0 0 0 0 
0 0 0 0 0 0 0 0 0 
0 0 0 0 0 0 0 0 0 
0 0 0 0 0 0 0 0 0 
0 0 0 0 0 0 0 0 0 
0 0 0 0 0 0 0 0 0 
0 0 0 0 0 0 0 0 0 
0 0 0 0 0 0 0 0 0 
0 0 0 0 0 0 0 0 0 
0 0 0 0 0 0 0 0 0 
0 0 0 0 0 0 0 0 0 
0 0 0 0 0 0 0 0 0 
0 0 0 0 0 0 0 0 0 
0 0 0 0 0 0 0 0 0 
0 0 0 0 0 0 0 0 0 
0 0 0 0 0 0 0 0 0 
0 0 0 0 0 0 0 0 0 
0 0 0 0 0 0 0 0 0 
0 0 0 0 0 0 0 0 0 
0 0 0 0 0 0 0 0 0 
0 0 0 0 0 0 0 0 0 
0 0 0 0 0 0 0 0 0 
0 0 0 0 0 0 0 0 0 
0 0 0 0 0 0 0 0 0 
0 0 0 0 0 0 0 0 0 
0 0 0 0 0 0 0 0 0 
0 0 0 0 0 0 0 0 0 
0 0 0 0 0 0 0 0 0 
0 0 0 0 0 0 0 0 0 
0 0 0 0 0 0 0 0 0 
0 0 0 0 0 0 0 0 0 
0 0 0 0 0 0 0 0 0 
0 0 0 0 0 0 0 0 0 
0 0 0 0 0 0 0 0 0 
0 0 0 0 0 0 0 0 0 
0 0 0 0 0 0 0 0 0 
0 0 0 0 0 0 0 0 0 
0 0 0 0 0 0 0 0 0 
0 0 0 0 0 0 0 0 0 
0 0 0 0 0 0 0 0 0 
0 0 0 0 0 0 0 0 0 
0 0 0 0 0 0 0 0 0 
0 0 0 0 0 0 0 0 0 
0 0 0 0 0 0 0 0 0 
0 0 0 0 0 0 0 0 0 
0 0 0 0 0 0 0 0 0 
0 0 0 0 0 0 0 0 0 
0 0 0 0 0 0 0 0 0 
0 0 0 0 0 0 0 0 0 
0 0 0 0 0 0 0 0 0 
0 0 0 0 0 0 0 0 0 
0 0 0 0 0 0 0 0 0 
0 0 0 0 0 0 0 0 0 
0 0 0 0 0 0 0 0 0 
0 0 0 0 0 0 0 0 0 
0 0 0 0 0 0 0 0 0 
0 0 0 0 0 0 0 0 0 
0 0 0 0 0 0 0 0 0 
0 0 0 0 0 0 0 0 0 
0 0 0 0 0 0 0 0 0 
0 0 0 0 0 0 0 0 0 
0 0 0 0 0 0 0 0 0 
0 0 0 0 0 0 0 0 0 
0 0 0 0 0 0 0 0 0 
0 0 0 0 0 0 0 0 0 
0 0 0 0 0 0 0 0 0 
0 0 0 0 0 0 0 0 0 
0 0 0 0 0 0 0 0 0 
0 0 0 0 0 0 0 0 0 
0 0 0 0 0 0 0 0 0 
0 0 0 0 0 0 0 0 0 
0 0 0 0 0 0 0 0 0 
0 0 0 0 0 0 0 0 0 
0 0 0 0 0 0 0 0 0 
0 0 0 0 0 0 0 0 0 
0 0 0 0 0 0 0 0 0 
0 0 0 0 0 0 0 0 0 
0 0 0 0 0 0 0 0 0 
0 0 0 0 0 0 0 0 0 
0 0 0 0 0 0 0 0 0 
0 0 0 0 0 0 0 0 0 
0 0 0 0 0 0 0 0 0 
0 0 0 0 0 0 0 0 0 
0 0 0 0 0 0 0 0 0 
0 0 0 0 0 0 0 0 0 
0 0 0 0 0 0 0 0 0 
0 0 0 0 0 0 0 0 0 
0 0 0 0 0 0 0 0 0 
0 0 0 0 0 0 0 0 0 
0 0 0 0 0 0 0 0 0 
0 0 0 0 0 0 0 0 0 
0 0 0 0 0 0 0 0 0 
0 0 0 0 0 0 0 0 0 
0 0 0 0 0 0 0 0 0 
0 0 0 0 0 0 0 0 0 
0 0 0 0 0 0 0 0 0 
0 0 0 0 0 0 0 0 0 
0 0 0 0 0 0 0 0 0 
0 0 0 0 0 0 0 0 0 
0 0 0 0 0 0 0 0 0 
0 0 0 0 0 0 0 0 0 
0 0 0 0 0 0 0 0 0 
0 0 0 0 0 0 0 0 0 
0 0 0 0 0 0 0 0 0 
0 0 0 0 0 0 0 0 0 
0 0 0 0 0 0 0 0 0 
0 0 0 0 0 0 0 0 0 
0 0 0 0 0 0 0 0 0 
0 0 0 0 0 0 0 0 0 
0 0 0 0 0 0 0 0 0 
0 0 0 0 0 0 0 0 0 
0 0 0 0 0 0 0 0 0 
0 0 0 0 0 0 0 0 0 
0 0 0 0 0 0 0 0 0 
0 0 0 0 0 0 0 0 0 
0 0 0 0 0 0 0 0 0 
0 0 0 0 0 0 0 0 0 
0 0 0 0 0 0 0 0 0 
0 0 0 0 0 0 0 0 0 
0 0 0 0 0 0 0 0 0 
0 0 0 0 0 0 0 0 0 
0 0 0 0 0 0 0 0 0 
0 0 0 0 0 0 0 0 0 
0 0 0 0 0 0 0 0 0 
0 0 0 0 0 0 0 0 0 
0 0 0 0 0 0 0 0 0 
0 0 0 0 0 0 0 0 0 
0 0 0 0 0 0 0 0 0 
0 0 0 0 0 0 0 0 0 
0 0 0 0 0 0 0 0 0 
0 0 0 0 0 0 0 0 0 
0 0 0 0 0 0 0 0 0 
0 0 0 0 0 0 0 0 0 
0 0 0 0 0 0 0 0 0 
0 0 0 0 0 0 0 0 0 
0 0 0 0 0 0 0 0 0 
0 0 0 0 0 0 0 0 0 
0 0 0 0 0 0 0 0 0 
0 0 0 0 0 0 0 0 0 
0 0 0 0 0 0 0 0 0 
0 0 0 0 0 0 0 0 0 
0 0 0 0 0 0 0 0 0 
0 0 0 0 0 0 0 0 0 
0 0 0 0 0 0 0 0 0 
0 0 0 0 0 0 0 0 0 
0 0 0 0 0 0 0 0 0 
0 0 0 0 0 0 0 0 0 
0 0 0 0 0 0 0 0 0 
0 0 0 0 0 0 0 0 0 
0 0 0 0 0 0 0 0 0 
0 0 0 0 0 0 0 0 0 
0 0 0 0 0 0 0 0 0 
0 0 0 0 0 0 0 0 0 
0 0 0 0 0 0 0 0 0 
0 0 0 0 0 0 0 0 0 
0 0 0 0 0 0 0 0 0 
0 0 0 0 0 0 0 0 0 
0 0 0 0 0 0 0 0 0 
0 0 0 0 0 0 0 0 0 
0 0 0 0 0 0 0 0 0 
0 0 0 0 0 0 0 0 0 
0 0 0 0 0 0 0 0 0 
0 0 0 0 0 0 0 0 0 
0 0 0 0 0 0 0 0 0 
0 0 0 0 0 0 0 0 0 
0 0 0 0 0 0 0 0 0 
0 0 0 0 0 0 0 0 0 
0 0 0 0 0 0 0 0 0 
0 0 0 0 0 0 0 0 0 
0 0 0 0 0 0 0 0 0 
0 0 0 0 0 0 0 0 0 
0 0 0 0 0 0 0 0 0 
0 0 0 0 0 0 0 0 0 
0 0 0 0 0 0 0 0 0 
0 0 0 0 0 0 0 0 0 
0 0 0 0 0 0 0 0 0 
0 0 0 0 0 0 0 0 0 
0 0 0 0 0 0 0 0 0 
0 0 0 0 0 0 0 0 0 
0 0 0 0 0 0 0 0 0 
0 0 0 0 0 0 0 0 0 
0 0 0 0 0 0 0 0 0 
0 0 0 0 0 0 0 0 0 
0 0 0 0 0 0 0 0 0 
0 0 0 0 0 0 0 0 0 
0 0 0 0 0 0 0 0 0 
0 0 0 0 0 0 0 0 0 
0 0 0 0 0 0 0 0 0 
0 0 0 0 0 0 0 0 0 
0 0 0 0 0 0 0 0 0 
0 0 0 0 0 0 0 0 0 
0 0 0 0 0 0 0 0 0 
0 0 0 0 0 0 0 0 0 
0 0 0 0 0 0 0 0 0 
0 0 0 0 0 0 0 0 0 
0 0 0 0 0 0 0 0 0 
0 0 0 0 0 0 0 0 0 
0 0 0 0 0 0 0 0 0 
0 0 0 0 0 0 0 0 0 
0 0 0 0 0 0 0 0 0 
0 0 0 0 0 0 0 0 0 
0 0 0 0 0 0 0 0 0 
0 0 0 0 0 0 0 0 0 
0 0 0 0 0 0 0 0 0 
0 0 0 0 0 0 0 0 0 
0 0 0 0 0 0 0 0 0 
0 0 0 0 0 0 0 0 0 
0 0 0 0 0 0 0 0 0 
0 0 0 0 0 0 0 0 0 
0 0 0 0 0 0 0 0 0 
0 0 0 0 0 0 0 0 0 
0 0 0 0 0 0 0 0 0 
0 0 0 0 0 0 0 0 0 
0 0 0 0 0 0 0 0 0 
0 0 0 0 0 0 0 0 0 
0 0 0 0 0 0 0 0 0 
0 0 0 0 0 0 0 0 0 
0 0 0 0 0 0 0 0 0 
0 0 0 0 0 0 0 0 0 
0 0 0 0 0 0 0 0 0 
0 0 0 0 0 0 0 0 0 
0 0 0 0 0 0 0 0 0 
0 0 0 0 0 0 0 0 0 
0 0 0 0 0 0 0 0 0 
0 0 0 0 0 0 0 0 0 
0 0 0 0 0 0 0 0 0 
0 0 0 0 0 0 0 0 0 
0 0 0 0 0 0 0 0 0 
0 0 0 0 0 0 0 0 0 
0 0 0 0 0 0 0 0 0 
0 0 0 0 0 0 0 0 0 
0 0 0 0 0 0 0 0 0 
0 0 0 0 0 0 0 0 0 
0 0 0 0 0 0 0 0 0 
0 0 0 0 0 0 0 0 0 
0 0 0 0 0 0 0 0 0 
0 0 0 0 0 0 0 0 0 
0 0 0 0 0 0 0 0 0 
0 0 0 0 0 0 0 0 0 
0 0 0 0 0 0 0 0 0 
0 0 0 0 0 0 0 0 0 
0 0 0 0 0 0 0 0 0 
0 0 0 0 0 0 0 0 0 
0 0 0 0 0 0 0 0 0 
0 0 0 0 0 0 0 0 0 
0 0 0 0 0 0 0 0 0 
0 0 0 0 0 0 0 0 0 
0 0 0 0 0 0 0 0 0 
0 0 0 0 0 0 0 0 0 
0 0 0 0 0 0 0 0 0 
0 0 0 0 0 0 0 0 0 
0 0 0 0 0 0 0 0 0 
0 0 0 0 0 0 0 0 0 
0 0 0 0 0 0 0 0 0 
0 0 0 0 0 0 0 0 0 
0 0 0 0 0 0 0 0 0 
0 0 0 0 0 0 0 0 0 
0 0 0 0 0 0 0 0 0 
0 0 0 0 0 0 0 0 0 
0 0 0 0 0 0 0 0 0 
0 0 0 0 0 0 0 0 0 
0 0 0 0 0 0 0 0 0 
0 0 0 0 0 0 0 0 0 
0 0 0 0 0 0 0 0 0 
0 0 0 0 0 0 0 0 0 
0 0 0 0 0 0 0 0 0 
0 0 0 0 0 0 0 0 0 
0 0 0 0 0 0 0 0 0 
0 0 0 0 0 0 0 0 0 
0 0 0 0 0 0 0 0 0 
0 0 0 0 0 0 0 0 0 
0 0 0 0 0 0 0 0 0 
0 0 0 0 0 0 0 0 0 
0 0 0 0 0 0 0 0 0 
0 0 0 0 0 0 0 0 0 
0 0 0 0 0 0 0 0 0 
0 0 0 0 0 0 0 0 0 
0 0 0 0 0 0 0 0 0 
0 0 0 0 0 0 0 0 0 
0 0 0 0 0 0 0 0 0 
0 0 0 0 0 0 0 0 0 
0 0 0 0 0 0 0 0 0 
0 0 0 0 0 0 0 0 0 
0 0 0 0 0 0 0 0 0 
0 0 0 0 0 0 0 0 0 
0 0 0 0 0 0 0 0 0 
0 0 0 0 0 0 0 0 0 
0 0 0 0 0 0 0 0 0 
0 0 0 0 0 0 0 0 0 
0 0 0 0 0 0 0 0 0 
0 0 0 0 0 0 0 0 0 
0 0 0 0 0 0 0 0 0 
0 0 0 0 0 0 0 0 0 
0 0 0 0 0 0 0 0 0 
0 0 0 0 0 0 0 0 0 
0 0 0 0 0 0 0 0 0 
0 0 0 0 0 0 0 0 0 
0 0 0 0 0 0 0 0 0 
0 0 0 0 0 0 0 0 0 
0 0 0 0 0 0 0 0 0 
0 0 0 0 0 0 0 0 0 
0 0 0 0 0 0 0 0 0 
0 0 0 0 0 0 0 0 0 
0 0 0 0 0 0 0 0 0 
0 0 0 0 0 0 0 0 0 
0 0 0 0 0 0 0 0 0 
0 0 0 0 0 0 0 0 0 
0 0 0 0 0 0 0 0 0 
0 0 0 0 0 0 0 0 0 
0 0 0 0 0 0 0 0 0 
0 0 0 0 0 0 0 0 0 
0 0 0 0 0 0 0 0 0 
0 0 0 0 0 0 0 0 0 
0 0 0 0 0 0 0 0 0 
0 0 0 0 0 0 0 0 0 
0 0 0 0 0 0 0 0 0 
0 0 0 0 0 0 0 0 0 
0 0 0 0 0 0 0 0 0 
0 0 0 0 0 0 0 0 0 
0 0 0 0 0 0 0 0 0 
0 0 0 0 0 0 0 0 0 
0 0 0 0 0 0 0 0 0 
0 0 0 0 0 0 0 0 0 
0 0 0 0 0 0 0 0 0 
0 0 0 0 0 0 0 0 0 
0 0 0 0 0 0 0 0 0 
0 0 0 0 0 0 0 0 0 
0 0 0 0 0 0 0 0 0 
0 0 0 0 0 0 0 0 0 
0 0 0 0 0 0 0 0 0 
0 0 0 0 0 0 0 0 0 
0 0 0 0 0 0 0 0 0 
0 0 0 0 0 0 0 0 0 
0 0 0 0 0 0 0 0 0 
0 0 0 0 0 0 0 0 0 
0 0 0 0 0 0 0 0 0 
0 0 0 0 0 0 0 0 0 
0 0 0 0 0 0 0 0 0 
0 0 0 0 0 0 0 0 0 
0 0 0 0 0 0 0 0 0 
0 0 0 0 0 0 0 0 0 
0 0 0 0 0 0 0 0 0 
0 0 0 0 0 0 0 0 0 
0 0 0 0 0 0 0 0 0 
0 0 0 0 0 0 0 0 0 
0 0 0 0 0 0 0 0 0 
0 0 0 0 0 0 0 0 0 
0 0 0 0 0 0 0 0 0 
0 0 0 0 0 0 0 0 0 
0 0 0 0 0 0 0 0 0 
0 0 0 0 0 0 0 0 0 
0 0 0 0 0 0 0 0 0 
0 0 0 0 0 0 0 0 0 
0 0 0 0 0 0 0 0 0 
0 0 0 0 0 0 0 0 0 
0 0 0 0 0 0 0 0 0 
0 0 0 0 0 0 0 0 0 
0 0 0 0 0 0 0 0 0 
0 0 0 0 0 0 0 0 0 
0 0 0 0 0 0 0 0 0 
0 0 0 0 0 0 0 0 0 
0 0 0 0 0 0 0 0 0 
0 0 0 0 0 0 0 0 0 
0 0 0 0 0 0 0 0 0 
0 0 0 0 0 0 0 0 0 
0 0 0 0 0 0 0 0 0 
0 0 0 0 0 0 0 0 0 
0 0 0 0 0 0 0 0 0 
0 0 0 0 0 0 0 0 0 
0 0 0 0 0 0 0 0 0 
0 0 0 0 0 0 0 0 0 
0 0 0 0 0 0 0 0 0 
0 0 0 0 0 0 0 0 0 
0 0 0 0 0 0 0 0 0 
0 0 0 0 0 0 0 0 0 
0 0 0 0 0 0 0 0 0 
0 0 0 0 0 0 0 0 0 
0 0 0 0 0 0 0 0 0 
0 0 0 0 0 0 0 0 0 
0 0 0 0 0 0 0 0 0 
0 0 0 0 0 0 0 0 0 
0 0 0 0 0 0 0 0 0 
0 0 0 0 0 0 0 0 0 
0 0 0 0 0 0 0 0 0 
0 0 0 0 0 0 0 0 0 
0 0 0 0 0 0 0 0 0 
0 0 0 0 0 0 0 0 0 
0 0 0 0 0 0 0 0 0 
0 0 0 0 0 0 0 0 0 
0 0 0 0 0 0 0 0 0 
0 0 0 0 0 0 0 0 0 
0 0 0 0 0 0 0 0 0 
0 0 0 0 0 0 0 0 0 
0 0 0 0 0 0 0 0 0 
0 0 0 0 0 0 0 0 0 
0 0 0 0 0 0 0 0 0 
0 0 0 0 0 0 0 0 0 
0 0 0 0 0 0 0 0 0 
0 0 0 0 0 0 0 0 0 
0 0 0 0 0 0 0 0 0 
0 0 0 0 0 0 0 0 0 
0 0 0 0 0 0 0 0 0 
0 0 0 0 0 0 0 0 0 
0 0 0 0 0 0 0 0 0 
0 0 0 0 0 0 0 0 0 
0 0 0 0 0 0 0 0 0 
0 0 0 0 0 0 0 0 0 
0 0 0 0 0 0 0 0 0 
0 0 0 0 0 0 0 0 0 
0 0 0 0 0 0 0 0 0 
0 0 0 0 0 0 0 0 0 
0 0 0 0 0 0 0 0 0 
0 0 0 0 0 0 0 0 0 
0 0 0 0 0 0 0 0 0 
0 0 0 0 0 0 0 0 0 
0 0 0 0 0 0 0 0 0 
0 0 0 0 0 0 0 0 0 
0 0 0 0 0 0 0 0 0 
0 0 0 0 0 0 0 0 0 
0 0 0 0 0 0 0 0 0 
0 0 0 0 0 0 0 0 0 
0 0 0 0 0 0 0 0 0 
0 0 0 0 0 0 0 0 0 
0 0 0 0 0 0 0 0 0 
0 0 0 0 0 0 0 0 0 
0 0 0 0 0 0 0 0 0 
0 0 0 0 0 0 0 0 0 
0 0 0 0 0 0 0 0 0 
0 0 0 0 0 0 0 0 0 
0 0 0 0 0 0 0 0 0 
0 0 0 0 0 0 0 0 0 
0 0 0 0 0 0 0 0 0 
0 0 0 0 0 0 0 0 0 
0 0 0 0 0 0 0 0 0 
0 0 0 0 0 0 0 0 0 
0 0 0 0 0 0 0 0 0 
0 0 0 0 0 0 0 0 0 
0 0 0 0 0 0 0 0 0 
0 0 0 0 0 0 0 0 0 
0 0 0 0 0 0 0 0 0 

v 3 1500 double
0 0 -1.98095 0 0 -1.98095 0 0 -1.98095 
0 0 -1.98095 0 0 -1.98095 0 0 -1.98095 
0 0 -1.98095 0 0 -1.98095 0 0 -1.98095 
0 0 -1.98095 0 0 -1.98095 0 0 -1.98095 
0 0 -1.98095 0 0 -1.98095 0 0 -1.98095 
0 0 -1.98095 0 0 -1.98095 0 0 -1.98095 
0 0 -1.98095 0 0 -1.98095 0 0 -1.98095 
0 0 -1.98095 0 0 -1.98095 0 0 -1.98095 
0 0 -1.98095 0 0 -1.98095 0 0 -1.98095 
0 0 -1.98095 0 0 -1.98095 0 0 -1.98095 
0 0 -1.98095 0 0 -1.98095 0 0 -1.98095 
0 0 -1.98095 0 0 -1.98095 0 0 -1.98095 
0 0 -1.98095 0 0 -1.98095 0 0 -1.88285 
0 0 -1.88285 0 0 -1.88285 0 0 -1.88285 
0 0 -1.88285 0 0 -1.88285 0 0 -1.88285 
0 0 -1.88285 0 0 -1.88285 0 0 -1.88285 