# vtk DataFile Version 4.0
Generated by LIGGGHTS
ASCII
DATASET POLYDATA
POINTS 1214 float
-0.000901785 -0.209937 0.00149966 -0.131784 -0.31639 0.00149966 -0.0335332 -0.318173 0.00149966 
-0.087492 -0.311764 0.00149966 -0.162378 -0.308572 0.00149966 -0.11676 -0.30873 0.00149966 
-0.0123718 -0.30945 0.00149966 -0.263716 -0.304978 0.00149966 -0.0762647 -0.308461 0.00149966 
-0.0625852 -0.306461 0.00149966 -0.337676 -0.299128 0.00149966 -0.0244169 -0.298988 0.00149966 
-0.139307 -0.295371 0.00149966 -0.250873 -0.291151 0.00149966 -0.109237 -0.284918 0.00149966 
-0.0566313 -0.0661364 0.0232963 -0.218131 -0.279948 0.00149966 -0.123357 -0.280734 0.00149966 
-0.0355775 -0.281263 0.00149966 -0.0121078 -0.278182 0.00149966 -0.0786073 -0.267248 0.00149966 
-0.0061449 -0.266727 0.00149966 -0.245704 -0.264577 0.00149966 -0.0603391 -0.265985 0.00149966 
-0.262474 -0.263284 0.00149966 -0.120915 -0.263574 0.00149966 -0.203028 -0.257974 0.00149966 
-0.069666 -0.259142 0.00149966 -0.0330274 -0.259759 0.00149966 -0.291927 -0.252897 0.00149966 
-0.0672579 -0.252909 0.00149966 -0.053661 -0.255018 0.00149966 -0.0370281 -0.245272 0.00149966 
-0.0420788 -0.241157 0.00149966 -0.214641 -0.237004 0.00149966 -0.0681159 -0.238362 0.00149966 
-0.0117832 -0.237986 0.00149966 -0.200772 -0.234129 0.00149966 -0.0270978 -0.232858 0.00149966 
-0.0603751 -0.221564 0.00149966 -0.247821 -0.216006 0.00149966 -0.121041 -0.215373 0.00149966 
-0.0190954 -0.214407 0.00149966 -0.102438 -0.211872 0.00151142 -0.0578586 -0.204634 0.00149966 
-0.0954153 -0.202603 0.00149966 -0.267322 -0.196816 0.00149966 -0.19054 -0.196752 0.00149966 
-0.116614 -0.189445 0.00149966 -0.194106 -0.186939 0.00149966 -0.260425 -0.182166 0.00149966 
-0.239213 -0.182451 0.00149966 -0.205926 -0.179646 0.00149966 -0.119664 -0.179285 0.00149966 
-0.164783 -0.165816 0.00149966 -0.0481956 -0.167172 0.00149966 -0.0247513 -0.0959061 0.0259321 
-0.159521 -0.157593 0.00149966 -0.0832909 -0.150826 0.00149966 -0.0732395 -0.151273 0.00149966 
-0.0635763 -0.151923 0.00149966 -0.261882 -0.147412 0.00149966 -0.204207 -0.150424 0.00149966 
-0.0608052 -0.0527573 0.0257717 -0.315107 -0.14554 0.00149966 -0.275339 -0.142273 0.00149966 
-0.0232401 -0.144356 0.00149966 -0.131521 -0.141764 0.00149966 -0.173918 -0.138502 0.00149966 
-0.103846 -0.13734 0.00149966 -0.172186 -0.135389 0.00149966 -0.290509 -0.121575 0.00149966 
-0.180472 -0.124134 0.00149966 -0.00138861 -0.123482 0.00149966 -0.083697 -0.122167 0.00149966 
-0.0696084 -0.122607 0.00149966 -0.0614591 -0.122053 0.00149966 -0.310266 -0.117416 0.00149966 
-0.0554469 -0.115625 0.00149966 -0.305944 -0.111966 0.00149966 -0.187403 -0.111852 0.00149966 
-0.030981 -0.109359 0.00149966 -0.297443 -0.108275 0.00149966 -0.127148 -0.106993 0.00149966 
-0.058687 -0.106851 0.00149966 -0.105719 -0.102966 0.00149966 -0.0667349 -0.103376 0.00149966 
-0.225689 -0.0990395 0.00149966 -0.133763 -0.100174 0.00149966 -0.12827 -0.0969248 0.00149966 
-0.08081 -0.0979986 0.00149966 -0.0564794 -0.0980296 0.00149966 -0.0460729 -0.096284 0.00149966 
-0.0232675 -0.0957422 0.00149966 -0.140612 -0.0916952 0.00149966 -0.105625 -0.0942194 0.00149966 
-0.0910297 -0.0944849 0.00149966 -0.0579685 -0.0943132 0.00149966 -0.119277 -0.086844 0.00149966 
-0.0544483 -0.0898603 0.00149966 -0.0394429 -0.0849718 0.00436173 -0.00670695 -0.0869189 0.00149966 
-0.113493 -0.0846154 0.00149966 -0.157207 -0.0806423 0.00149966 -0.144682 -0.0820152 0.00149966 
-0.0281838 -0.0824562 0.00149966 -0.114355 -0.0792961 0.00149966 -0.0756656 -0.0773561 0.00149966 
-0.0206976 -0.0772196 0.00149966 -0.30018 -0.0741686 0.00149966 -0.208922 -0.0754037 0.00149966 
-0.130527 -0.0727166 0.00149966 -0.0717483 -0.0735437 0.00149966 -0.0342906 -0.0749306 0.00149966 
-0.0785901 -0.0725937 0.00149966 -0.0444659 -0.0717147 0.00149966 -0.00505972 -0.0687705 0.00149966 
-0.268109 -0.0663502 0.00149966 -0.0506883 -0.0668475 0.00149966 -0.263897 -0.0639463 0.00149966 
-0.13636 -0.0581804 0.00149966 -0.162892 -0.0575418 0.00149966 -0.150328 -0.0573822 0.00149966 
-0.0271466 -0.0581911 0.00149966 -0.281118 -0.0560886 0.00149966 -0.0162217 -0.050044 0.00150255 
-0.038866 -0.0474337 0.00149957 -0.016982 -0.0471302 0.00150106 -0.122878 -0.0431118 0.00149966 
-0.0949875 -0.0436649 0.00149966 -0.0256887 -0.0439197 0.00149966 -0.153856 -0.0414291 0.00149966 
-0.0282525 -0.0420782 0.00149966 -0.00290581 -0.0400224 0.00149966 -0.228734 -0.0389132 0.00149966 
-0.166089 -0.0393187 0.00149966 -0.0921403 -0.0378595 0.00168167 -0.00728334 -0.039683 0.00149966 
-0.287511 -0.0345634 0.00149966 -0.153701 -0.0359921 0.00149966 -0.0265128 -0.0358574 0.00149966 
-0.00746754 -0.0362796 0.00149966 -0.303444 -0.0314564 0.00149966 -0.19401 -0.0300306 0.00149966 
-0.179795 -0.0305444 0.00149966 -0.140872 -0.0314769 0.0014998 -0.0607253 -0.0335415 0.00149966 
-0.0309913 -0.0329632 0.00149966 -0.0265851 -0.0319748 0.00149966 -0.0196018 -0.0333243 0.00149966 
-0.00462344 -0.0324162 0.00149966 -0.137583 -0.0312306 0.00151329 -0.100657 -0.0280642 0.00149966 
-0.0801541 -0.0260172 0.00149966 -0.291742 -0.0250121 0.00149966 -0.201297 -0.0232646 0.00149966 
-0.0630822 -0.0224037 0.00149966 -0.0236799 -0.0247869 0.00149966 -0.132682 -0.0205419 0.00149966 
-0.0831422 -0.0203715 0.00149966 -0.0666489 -0.0218342 0.00244453 -0.00806745 -0.0181512 0.00149966 
-0.262768 -0.0177905 0.00149966 -0.00756315 -0.0146629 0.00149966 -0.000369213 -0.014511 0.00149966 
-0.164767 -0.0102096 0.00149966 -0.129443 -0.0109276 0.00149966 -0.0349921 -0.0114893 0.00149966 
-0.0267211 -0.00943948 0.00149966 -0.00143721 -0.0116654 0.0015332 -0.285482 -0.00635958 0.00149966 
-0.204688 -0.00720255 0.00149966 -0.0979899 -0.00849305 0.00149966 -0.146956 -0.00485341 0.00149966 
-0.0540012 -0.0039371 0.00149966 -0.039025 -0.00376478 0.00149966 -0.024213 -0.00482294 0.00149966 
-0.0070997 -0.00583573 0.00149966 -0.217161 -0.00218238 0.00149966 -0.214809 -0.000265478 0.00149966 
-0.156496 -0.00179324 0.00149966 -0.0813507 -0.000418741 0.00149966 -0.029349 -0.00203637 0.00149966 
-0.22325 -0.336589 0.00205347 -0.0293508 -0.260156 0.00156272 -0.229447 -0.252062 0.00149964 
-0.105591 -0.200079 0.00154716 -0.130559 -0.192662 0.00575079 -0.230986 -0.178791 0.00152386 
-0.210788 -0.177768 0.00557881 -0.186359 -0.145743 0.00229768 -0.0150307 -0.140869 0.0056979 
-0.007107 -0.137848 0.00311834 -0.201574 -0.132858 0.00215021 -0.200406 -0.127763 0.00611663 
-0.0890893 -0.116204 0.00211262 -0.0907836 -0.110367 0.00169721 -0.00603528 -0.109518 0.00260843 
-0.0388634 -0.0985868 0.00381404 -0.0165603 -0.0950573 0.00282783 -0.0722845 -0.0939188 0.00149979 
-0.0525997 -0.0929695 0.00158809 -0.291944 -0.0930586 0.00314462 -0.27984 -0.0887307 0.00213066 
-0.0926421 -0.0360238 0.0268666 -0.111108 -0.0575613 0.00170792 -0.0145218 -0.0566935 0.00150597 
-0.00365482 -0.0563726 0.00159762 -0.0156184 -0.0534054 0.00186422 -0.0840036 -0.0483182 0.00455195 
-0.0419304 -0.0485671 0.00338015 -0.0187347 -0.0430339 0.00550782 -0.240698 -0.0383482 0.00234466 
-0.0870493 -0.0371325 0.00637096 -0.0710558 -0.0343718 0.00608423 -0.0122655 -0.0356792 0.00242376 
-0.105469 -0.030837 0.00152281 -0.0556035 -0.0280068 0.0051402 -0.0190236 -0.0269644 0.00252466 
-0.0151967 -0.0309239 0.00405786 -0.0255703 -0.0276379 0.00201751 -0.0725295 -0.0196327 0.00189932 
-0.0369763 -0.0166004 0.00198465 -0.12831 -0.000204755 0.00215779 -0.0722522 -0.00437943 0.00203812 
-0.00484992 -0.00232856 0.00204967 -0.046287 -0.325655 0.0036632 -0.105097 -0.212018 0.00296392 
-0.0305418 -0.166111 0.005463 -0.119679 -0.0904532 0.00599774 -0.00552003 -0.085243 0.00619704 
-0.0507101 -0.0841241 0.00773653 -0.0379278 -0.0830527 0.00620978 -0.059581 -0.078365 0.00278734 
-0.0300323 -0.0638603 0.00603983 -0.104611 -0.0617732 0.00344597 -0.0147415 -0.0611842 0.00781677 
-0.0680228 -0.0596033 0.00596412 -0.0559979 -0.0575567 0.0070334 -0.282665 -0.0575518 0.00667285 
-0.00368025 -0.0539438 0.00618732 -0.0596716 -0.0375452 0.00389189 -0.0639446 -0.0335746 0.00624248 
-0.0357575 -0.0351579 0.00690969 -0.0423533 -0.0311614 0.00775707 -0.0877852 -0.0269469 0.00698439 
-0.0933548 -0.0137677 0.00533367 -0.065182 -0.0140542 0.00222906 -0.0501255 -0.0124567 0.00619936 
-0.0907445 -0.0116273 0.00394635 -0.0725359 -0.0110351 0.00785852 -0.0314519 -0.0115455 0.00262894 
-0.082364 -0.00689727 0.00185403 -0.14139 -0.00188135 0.0077666 -0.0198883 -0.0633021 0.00736494 
-0.0882755 -0.0466527 0.00160893 -0.0720076 -0.0310205 0.00283348 -0.0155389 -0.0975384 0.00554446 
-0.0492714 -0.0313727 0.0045592 -0.0950038 -0.0287171 0.00714924 -0.0646042 -0.00298797 0.00420756 
-0.0432194 -0.0881034 0.011399 -0.0509716 -0.0794334 0.0108433 -0.0374447 -0.0325562 0.00848508 
-0.0504029 -0.0212287 0.00781513 -0.0256514 -0.02288 0.0111972 -0.0157184 -0.0787242 0.0162159 
-0.0508616 -0.0687404 0.0156296 -0.0369944 -0.0655106 0.0155877 -0.0281457 -0.0454633 0.0172545 
-0.0464498 -0.0810951 0.0195005 -0.0654566 -0.0294551 0.019944 -0.0901006 -0.0209487 0.0201713 
-0.0469991 -0.014104 0.0202308 -0.0332489 -0.0140985 0.0198491 -0.0708457 -0.00294179 0.0202742 
-0.0271206 -0.110565 0.0238162 -0.155329 -5.62581e-06 0.00696252 -0.221373 0.00195043 0.00149966 
-0.118066 0.00274901 0.00149966 -0.0861116 0.00153005 0.00149966 -0.0308324 0.00224571 0.00149966 
-0.0277206 0.00410545 0.00149966 -0.025059 0.0012353 0.00149966 -0.32626 0.0032236 0.00149966 
-0.145961 0.00493142 0.00149966 -0.0120011 0.00415515 0.00149966 -0.162601 0.00702098 0.00149966 
-0.130316 0.00689356 0.00149966 -0.107669 0.00791369 0.00149966 -0.0809056 0.00707873 0.00149966 
-0.0369324 0.0100539 0.00149966 -0.208223 0.0101091 0.00149966 -0.0506332 0.0108789 0.00149966 
-0.0230483 0.0107737 0.00149966 -0.204767 0.0140814 0.00149966 -0.13474 0.0132798 0.00149966 
-0.121069 0.0130905 0.00149868 -0.117193 0.0146738 0.00149966 -0.106817 0.0134024 0.00149966 
-0.100543 0.012681 0.00149966 -0.083916 0.0174025 0.00149966 -0.0583526 0.0145259 0.00149966 
[...]
POINT_DATA 1214
FIELD FieldData 7
id 1 1214 int
117 1387 803 618 157 862 1159 110 1390 
1236 990 1456 1365 913 478 1361 405 782 
1358 1210 24 81 483 835 936 1108 1300 
463 1100 642 30 374 1109 788 1051 4 
704 397 1266 589 1085 838 160 1196 1452 
1125 980 1431 10 178 1383 469 884 692 
759 84 1352 490 927 314 932 1376 442 
1353 905 633 229 337 15 356 25 171 
1055 1430 903 1200 182 1267 319 934 506 
467 452 1065 726 177 1439 774 676 39 
628 630 912 1136 466 1182 772 373 901 
371 786 147 464 1045 456 1070 159 1068 
997 156 58 1209 1281 612 647 852 64 
366 804 1014 479 511 1052 328 1393 1164 
1130 1145 627 1005 344 487 938 1323 1223 
925 1121 853 1119 11 677 1394 163 1235 
1377 998 1257 586 1231 1107 1012 1401 384 
31 431 808 306 434 664 1226 315 336 
1261 541 390 1242 700 1273 958 360 909 
1213 76 499 77 75 845 1405 1053 1122 
1202 829 626 952 1002 673 391 1120 937 
1039 1497 638 831 1057 317 465 421 839 
1278 167 305 754 1412 1224 1227 327 1336 
751 34 458 764 1158 1269 629 603 101 
23 639 732 1428 1483 778 701 1276 590 
199 1232 1211 152 1357 756 480 151 771 
27 388 173 16 477 382 28 7 303 
607 313 767 36 781 21 205 175 769 
763 362 9 915 931 1062 1079 602 604 
1082 1071 1086 766 1075 916 787 1208 935 
1354 1371 1204 1373 1078 1380 1116 606 481 
1238 1392 801 697 526 792 1094 427 1253 
973 1010 939 107 963 1378 491 93 1114 
215 641 1241 809 393 947 96 1279 165 
522 185 302 904 1421 822 214 583 326 
578 671 1422 1485 1217 1389 959 142 1256 
972 1205 471 955 805 652 1370 172 1168 
80 552 1228 791 1186 1099 940 1112 1287 
605 1189 1396 1076 611 345 498 89 40 
1017 353 842 222 556 709 273 1229 1023 
625 342 819 565 1402 1345 208 1415 295 
301 563 960 320 1457 765 494 867 654 
66 870 1471 795 1187 53 1399 945 1225 
1409 56 521 943 1406 1255 770 2 451 
581 799 432 562 141 1252 535 721 918 
610 195 1308 1468 122 1124 811 933 1240 
1254 970 492 515 865 145 71 1416 1155 
815 1 646 911 731 365 883 1183 45 
946 1104 649 534 1251 415 738 62 926 
402 1106 691 209 644 1154 1013 220 32 
1340 820 429 17 966 818 135 278 1111 
1123 1272 180 814 887 1169 63 1212 826 
1259 351 475 1117 1417 352 890 582 309 
520 288 1297 495 376 1362 61 1332 20 
657 660 1069 1364 203 790 217 67 1288 
454 714 46 1250 507 752 1077 1339 59 
282 600 800 908 1040 358 968 207 1379 
193 1248 138 347 773 510 712 533 35 
569 566 192 468 1398 57 216 341 504 
55 794 50 524 350 348 753 343 518 
1419 672 51 369 951 115 340 948 501 
796 1369 1414 662 930 47 204 54 60 
191 668 74 651 944 957 956 825 807 
1089 907 961 816 1395 1090 1262 1118 1243 
1454 1027 711 1449 304 634 281 161 230 
889 776 1451 318 168 339 1448 271 857 
698 235 472 1458 1359 849 854 1135 1007 
482 257 227 237 530 703 1437 286 1000 
1147 1134 789 1175 757 841 873 289 554 
725 532 1091 1234 329 194 924 98 768 
834 1460 1009 1146 964 1215 784 312 1432 
321 1313 656 488 632 559 1219 1037 823 
896 993 455 675 85 994 392 780 979 
29 631 710 1372 779 728 254 146 1435 
3 261 717 231 1363 678 869 5 381 
837 1289 1180 241 598 1290 484 1188 1127 
1201 246 695 474 457 1115 1307 105 310 
1330 509 681 708 473 588 387 367 363 
560 249 1233 621 12 41 1321 828 247 
166 976 527 1384 1141 577 86 1191 441 
1429 832 1237 267 26 1011 459 1344 608 
325 1413 1061 1462 693 1388 1035 1206 18 
775 1156 108 1293 1016 1162 1312 545 170 
239 412 1301 1172 558 1341 104 1285 1304 
311 1356 783 1484 689 258 97 144 1083 
802 538 22 619 785 443 1355 268 609 
407 1327 82 1179 1478 433 1496 1054 593 
255 90 719 917 238 833 250 1420 1425 
1222 529 232 188 1283 493 1465 640 572 
1066 1426 280 1160 1351 8 1245 383 1157 
540 576 1404 1286 354 378 705 409 485 
1144 694 406 424 1271 906 460 685 549 
573 985 87 987 860 1192 389 420 1386 
1487 1427 1036 1284 1282 544 696 359 1133 
551 103 636 553 401 561 531 858 830 
827 851 385 94 262 410 400 846 855 
557 1368 91 398 120 95 848 99 260 
111 395 233 682 248 1467 236 1434 1163 
981 1138 707 1151 982 844 859 992 986 
1444 1438 1292 1294 1306 1132 1295 1149 357 
1477 758 1324 661 118 1480 1093 201 335 
346 83 322 977 1350 679 1490 539 1314 
1193 983 287 584 747 1476 1092 882 821 
113 1258 1142 124 414 686 114 372 1026 
1024 413 596 667 476 1446 1338 224 298 
683 1349 722 720 1031 411 65 181 601 
331 505 949 996 723 1004 1220 1216 43 
750 1459 200 449 164 989 516 546 613 
659 1479 1095 635 14 125 1453 876 176 
663 624 1366 1346 285 211 1489 749 279 
1105 338 244 1137 1500 1195 881 1407 861 
897 517 1445 1101 1064 840 422 898 1029 
1003 637 1442 570 1181 242 1298 226 988 
1165 1317 680 542 44 585 745 100 548 
1048 891 872 148 1265 1171 824 1342 218 
568 892 810 445 1475 895 866 715 1334 
127 291 942 1335 525 1450 536 798 1488 
1348 1197 447 1173 735 1170 134 580 1018 
1296 1174 1038 19 1032 210 140 68 1244 
417 503 967 1042 136 1423 1113 730 123 
1190 251 645 1129 746 131 1494 1320 129 
864 741 290 256 1299 1239 139 508 962 
950 386 1495 514 1463 836 243 1046 444 
1325 1096 1019 564 121 1473 729 399 1486 
1493 984 850 893 1447 742 1443 592 743 
426 740 734 877 699 1482 737 941 1316 
1326 587 1047 1043 404 1337 438 716 658 
418 1139 1166 878 437 276 1274 183 293 
1110 880 1418 537 1347 1015 894 296 297 
1436 78 885 744 739 579 450 813 594 
1322 150 69 439 497 793 666 1184 1102 
1333 440 1474 1491 119 264 137 292 143 
733 419 284 130 128 1050 1041 1470 133 
1178 423 1466 1022 1033 724 874 1499 899 
886 1343 1328 1034 1021 1469 1167 1481 
type 1 1214 int
1 1 1 1 1 1 1 1 1 
1 1 1 1 1 1 1 1 1 
1 1 1 1 1 1 1 1 1 
1 1 1 1 1 1 1 1 1 
1 1 1 1 1 1 1 1 1 
1 1 1 1 1 1 1 1 1 
1 1 1 1 1 1 1 1 1 
1 1 1 1 1 1 1 1 1 
1 1 1 1 1 1 1 1 1 
1 1 1 1 1 1 1 1 1 
1 1 1 1 1 1 1 1 1 
1 1 1 1 1 1 1 1 1 
1 1 1 1 1 1 1 1 1 
1 1 1 1 1 1 1 1 1 
1 1 1 1 1 1 1 1 1 
1 1 1 1 1 1 1 1 1 
1 1 1 1 1 1 1 1 1 
1 1 1 1 1 1 1 1 1 
1 1 1 1 1 1 1 1 1 
1 1 1 1 1 1 1 1 1 
1 1 1 1 1 1 1 1 1 
1 1 1 1 1 1 1 1 1 
1 1 1 1 1 1 1 1 1 
1 1 1 1 1 1 1 1 1 
1 1 1 1 1 1 1 1 1 
1 1 1 1 1 1 1 1 1 
1 1 1 1 1 1 1 1 1 
1 1 1 1 1 1 1 1 1 
1 1 1 1 1 1 1 1 1 
1 1 1 1 1 1 1 1 1 
1 1 1 1 1 1 1 1 1 
1 1 1 1 1 1 1 1 1 
1 1 1 1 1 1 1 1 1 
1 1 1 1 1 1 1 1 1 
1 1 1 1 1 1 1 1 1 
1 1 1 1 1 1 1 1 1 
1 1 1 1 1 1 1 1 1 
1 1 1 1 1 1 1 1 1 
1 1 1 1 1 1 1 1 1 
1 1 1 1 1 1 1 1 1 
1 1 1 1 1 1 1 1 1 
1 1 1 1 1 1 1 1 1 
1 1 1 1 1 1 1 1 1 
1 1 1 1 1 1 1 1 1 
1 1 1 1 1 1 1 1 1 
1 1 1 1 1 1 1 1 1 
1 1 1 1 1 1 1 1 1 
1 1 1 1 1 1 1 1 1 
1 1 1 1 1 1 1 1 1 
1 1 1 1 1 1 1 1 1 
1 1 1 1 1 1 1 1 1 
1 1 1 1 1 1 1 1 1 
1 1 1 1 1 1 1 1 1 
1 1 1 1 1 1 1 1 1 
1 1 1 1 1 1 1 1 1 
1 1 1 1 1 1 1 1 1 
1 1 1 1 1 1 1 1 1 
1 1 1 1 1 1 1 1 1 
1 1 1 1 1 1 1 1 1 
1 1 1 1 1 1 1 1 1 
1 1 1 1 1 1 1 1 1 
1 1 1 1 1 1 1 1 1 
1 1 1 1 1 1 1 1 1 
1 1 1 1 1 1 1 1 1 
1 1 1 1 1 1 1 1 1 
1 1 1 1 1 1 1 1 1 
1 1 1 1 1 1 1 1 1 
1 1 1 1 1 1 1 1 1 
1 1 1 1 1 1 1 1 1 
1 1 1 1 1 1 1 1 1 
1 1 1 1 1 1 1 1 1 
1 1 1 1 1 1 1 1 1 
1 1 1 1 1 1 1 1 1 
1 1 1 1 1 1 1 1 1 
1 1 1 1 1 1 1 1 1 
1 1 1 1 1 1 1 1 1 
1 1 1 1 1 1 1 1 1 
1 1 1 1 1 1 1 1 1 
1 1 1 1 1 1 1 1 1 
1 1 1 1 1 1 1 1 1 
1 1 1 1 1 1 1 1 1 
1 1 1 1 1 1 1 1 1 
1 1 1 1 1 1 1 1 1 
1 1 1 1 1 1 1 1 1 
1 1 1 1 1 1 1 1 1 
1 1 1 1 1 1 1 1 1 
1 1 1 1 1 1 1 1 1 
1 1 1 1 1 1 1 1 1 
1 1 1 1 1 1 1 1 1 
1 1 1 1 1 1 1 1 1 
1 1 1 1 1 1 1 1 1 
1 1 1 1 1 1 1 1 1 
1 1 1 1 1 1 1 1 1 
1 1 1 1 1 1 1 1 1 
1 1 1 1 1 1 1 1 1 
1 1 1 1 1 1 1 1 1 
1 1 1 1 1 1 1 1 1 
1 1 1 1 1 1 1 1 1 
1 1 1 1 1 1 1 1 1 
1 1 1 1 1 1 1 1 1 
1 1 1 1 1 1 1 1 1 
1 1 1 1 1 1 1 1 1 
1 1 1 1 1 1 1 1 1 
1 1 1 1 1 1 1 1 1 
1 1 1 1 1 1 1 1 1 
1 1 1 1 1 1 1 1 1 
1 1 1 1 1 1 1 1 1 
1 1 1 1 1 1 1 1 1 
1 1 1 1 1 1 1 1 1 
1 1 1 1 1 1 1 1 1 
1 1 1 1 1 1 1 1 1 
1 1 1 1 1 1 1 1 1 
1 1 1 1 1 1 1 1 1 
1 1 1 1 1 1 1 1 1 
1 1 1 1 1 1 1 1 1 
1 1 1 1 1 1 1 1 1 
1 1 1 1 1 1 1 1 1 
1 1 1 1 1 1 1 1 1 
1 1 1 1 1 1 1 1 1 
1 1 1 1 1 1 1 1 1 
1 1 1 1 1 1 1 1 1 
1 1 1 1 1 1 1 1 1 
1 1 1 1 1 1 1 1 1 
1 1 1 1 1 1 1 1 1 
1 1 1 1 1 1 1 1 1 
1 1 1 1 1 1 1 1 1 
1 1 1 1 1 1 1 1 1 
1 1 1 1 1 1 1 1 1 
1 1 1 1 1 1 1 1 1 
1 1 1 1 1 1 1 1 1 
1 1 1 1 1 1 1 1 1 
1 1 1 1 1 1 1 1 1 
1 1 1 1 1 1 1 1 1 
1 1 1 1 1 1 1 1 1 
1 1 1 1 1 1 1 1 
i 3 1214 int
0 0 0 0 0 0 0 0 0 
0 0 0 0 0 0 0 0 0 
0 0 0 0 0 0 0 0 0 
0 0 0 0 0 0 0 0 0 
0 0 0 0 0 0 0 0 0 
0 0 0 0 0 0 0 0 0 
0 0 0 0 0 0 0 0 0 
0 0 0 0 0 0 0 0 0 
0 0 0 0 0 0 0 0 0 
0 0 0 0 0 0 0 0 0 
0 0 0 0 0 0 0 0 0 
0 0 0 0 0 0 0 0 0 
0 0 0 0 0 0 0 0 0 
0 0 0 0 0 0 0 0 0 
0 0 0 0 0 0 0 0 0 
0 0 0 0 0 0 0 0 0 
0 0 0 0 0 0 0 0 0 
0 0 0 0 0 0 0 0 0 
0 0 0 0 0 0 0 0 0 
0 0 0 0 0 0 0 0 0 
0 0 0 0 0 0 0 0 0 
0 0 0 0 0 0 0 0 0 
0 0 0 0 0 0 0 0 0 
0 0 0 0 0 0 0 0 0 
0 0 0 0 0 0 0 0 0 
0 0 0 0 0 0 0 0 0 
0 0 0 0 0 0 0 0 0 
0 0 0 0 0 0 0 0 0 
0 0 0 0 0 0 0 0 0 
0 0 0 0 0 0 0 0 0 
0 0 0 0 0 0 0 0 0 
0 0 0 0 0 0 0 0 0 
0 0 0 0 0 0 0 0 0 
0 0 0 0 0 0 0 0 0 
0 0 0 0 0 0 0 0 0 
0 0 0 0 0 0 0 0 0 
0 0 0 0 0 0 0 0 0 
0 0 0 0 0 0 0 0 0 
0 0 0 0 0 0 0 0 0 
0 0 0 0 0 0 0 0 0 
0 0 0 0 0 0 0 0 0 
0 0 0 0 0 0 0 0 0 
0 0 0 0 0 0 0 0 0 
0 0 0 0 0 0 0 0 0 
0 0 0 0 0 0 0 0 0 
0 0 0 0 0 0 0 0 0 
0 0 0 0 0 0 0 0 0 
0 0 0 0 0 0 0 0 0 
0 0 0 0 0 0 0 0 0 
0 0 0 0 0 0 0 0 0 
0 0 0 0 0 0 0 0 0 
0 0 0 0 0 0 0 0 0 
0 0 0 0 0 0 0 0 0 
0 0 0 0 0 0 0 0 0 
0 0 0 0 0 0 0 0 0 
0 0 0 0 0 0 0 0 0 
0 0 0 0 0 0 0 0 0 
0 0 0 0 0 0 0 0 0 
0 0 0 0 0 0 0 0 0 
0 0 0 0 0 0 0 0 0 
0 0 0 0 0 0 0 0 0 
0 0 0 0 0 0 0 0 0 
0 0 0 0 0 0 0 0 0 
0 0 0 0 0 0 0 0 0 
0 0 0 0 0 0 0 0 0 
0 0 0 0 0 0 0 0 0 
0 0 0 0 0 0 0 0 0 
0 0 0 0 0 0 0 0 0 
0 0 0 0 0 0 0 0 0 
0 0 0 0 0 0 0 0 0 
0 0 0 0 0 0 0 0 0 
0 0 0 0 0 0 0 0 0 
0 0 0 0 0 0 0 0 0 
0 0 0 0 0 0 0 0 0 
0 0 0 0 0 0 0 0 0 
0 0 0 0 0 0 0 0 0 
0 0 0 0 0 0 0 0 0 
0 0 0 0 0 0 0 0 0 
0 0 0 0 0 0 0 0 0 
0 0 0 0 0 0 0 0 0 
0 0 0 0 0 0 0 0 0 
0 0 0 0 0 0 0 0 0 
0 0 0 0 0 0 0 0 0 
0 0 0 0 0 0 0 0 0 
0 0 0 0 0 0 0 0 0 
0 0 0 0 0 0 0 0 0 
0 0 0 0 0 0 0 0 0 
0 0 0 0 0 0 0 0 0 
0 0 0 0 0 0 0 0 0 
0 0 0 0 0 0 0 0 0 
0 0 0 0 0 0 0 0 0 
0 0 0 0 0 0 0 0 0 
0 0 0 0 0 0 0 0 0 
0 0 0 0 0 0 0 0 0 
0 0 0 0 0 0 0 0 0 
0 0 0 0 0 0 0 0 0 
0 0 0 0 0 0 0 0 0 
0 0 0 0 0 0 0 0 0 
0 0 0 0 0 0 0 0 0 
0 0 0 0 0 0 0 0 0 
0 0 0 0 0 0 0 0 0 
0 0 0 0 0 0 0 0 0 
0 0 0 0 0 0 0 0 0 
0 0 0 0 0 0 0 0 0 
0 0 0 0 0 0 0 0 0 
0 0 0 0 0 0 0 0 0 
0 0 0 0 0 0 0 0 0 
0 0 0 0 0 0 0 0 0 
0 0 0 0 0 0 0 0 0 
0 0 0 0 0 0 0 0 0 
0 0 0 0 0 0 0 0 0 
0 0 0 0 0 0 0 0 0 
0 0 0 0 0 0 0 0 0 
0 0 0 0 0 0 0 0 0 
0 0 0 0 0 0 0 0 0 
0 0 0 0 0 0 0 0 0 
0 0 0 0 0 0 0 0 0 
0 0 0 0 0 0 0 0 0 
0 0 0 0 0 0 0 0 0 
0 0 0 0 0 0 0 0 0 
0 0 0 0 0 0 0 0 0 
0 0 0 0 0 0 0 0 0 
0 0 0 0 0 0 0 0 0 
0 0 0 0 0 0 0 0 0 
0 0 0 0 0 0 0 0 0 
0 0 0 0 0 0 0 0 0 
0 0 0 0 0 0 0 0 0 
0 0 0 0 0 0 0 0 0 
0 0 0 0 0 0 0 0 0 
0 0 0 0 0 0 0 0 0 
0 0 0 0 0 0 0 0 0 
0 0 0 0 0 0 0 0 0 
0 0 0 0 0 0 0 0 0 
0 0 0 0 0 0 0 0 0 
0 0 0 0 0 0 0 0 0 
0 0 0 0 0 0 0 0 0 
0 0 0 0 0 0 0 0 0 
0 0 0 0 0 0 0 0 0 
0 0 0 0 0 0 0 0 0 
0 0 0 0 0 0 0 0 0 
0 0 0 0 0 0 0 0 0 
0 0 0 0 0 0 0 0 0 
0 0 0 0 0 0 0 0 0 
0 0 0 0 0 0 0 0 0 
0 0 0 0 0 0 0 0 0 
0 0 0 0 0 0 0 0 0 
0 0 0 0 0 0 0 0 0 
0 0 0 0 0 0 0 0 0 
0 0 0 0 0 0 0 0 0 
0 0 0 0 0 0 0 0 0 
0 0 0 0 0 0 0 0 0 
0 0 0 0 0 0 0 0 0 
0 0 0 0 0 0 0 0 0 
0 0 0 0 0 0 0 0 0 
0 0 0 0 0 0 0 0 0 
0 0 0 0 0 0 0 0 0 
0 0 0 0 0 0 0 0 0 
0 0 0 0 0 0 0 0 0 
0 0 0 0 0 0 0 0 0 
0 0 0 0 0 0 0 0 0 
0 0 0 0 0 0 0 0 0 
0 0 0 0 0 0 0 0 0 
0 0 0 0 0 0 0 0 0 
0 0 0 0 0 0 0 0 0 
0 0 0 0 0 0 0 0 0 
0 0 0 0 0 0 0 0 0 
0 0 0 0 0 0 0 0 0 
0 0 0 0 0 0 0 0 0 
0 0 0 0 0 0 0 0 0 
0 0 0 0 0 0 0 0 0 
0 0 0 0 0 0 0 0 0 
0 0 0 0 0 0 0 0 0 
0 0 0 0 0 0 0 0 0 
0 0 0 0 0 0 0 0 0 
0 0 0 0 0 0 0 0 0 
0 0 0 0 0 0 0 0 0 
0 0 0 0 0 0 0 0 0 
0 0 0 0 0 0 0 0 0 
0 0 0 0 0 0 0 0 0 
0 0 0 0 0 0 0 0 0 
0 0 0 0 0 0 0 0 0 
0 0 0 0 0 0 0 0 0 
0 0 0 0 0 0 0 0 0 
0 0 0 0 0 0 0 0 0 
0 0 0 0 0 0 0 0 0 
0 0 0 0 0 0 0 0 0 
0 0 0 0 0 0 0 0 0 
0 0 0 0 0 0 0 0 0 
0 0 0 0 0 0 0 0 0 
0 0 0 0 0 0 0 0 0 
0 0 0 0 0 0 0 0 0 
0 0 0 0 0 0 0 0 0 
0 0 0 0 0 0 0 0 0 
0 0 0 0 0 0 0 0 0 
0 0 0 0 0 0 0 0 0 
0 0 0 0 0 0 0 0 0 
0 0 0 0 0 0 0 0 0 
0 0 0 0 0 0 0 0 0 
0 0 0 0 0 0 0 0 0 
0 0 0 0 0 0 0 0 0 
0 0 0 0 0 0 0 0 0 
0 0 0 0 0 0 0 0 0 
0 0 0 0 0 0 0 0 0 
0 0 0 0 0 0 0 0 0 
0 0 0 0 0 0 0 0 0 
0 0 0 0 0 0 0 0 0 
0 0 0 0 0 0 0 0 0 
0 0 0 0 0 0 0 0 0 
0 0 0 0 0 0 0 0 0 
0 0 0 0 0 0 0 0 0 
0 0 0 0 0 0 0 0 0 
0 0 0 0 0 0 0 0 0 
0 0 0 0 0 0 0 0 0 
0 0 0 0 0 0 0 0 0 
0 0 0 0 0 0 0 0 0 
0 0 0 0 0 0 0 0 0 
0 0 0 0 0 0 0 0 0 
0 0 0 0 0 0 0 0 0 
0 0 0 0 0 0 0 0 0 
0 0 0 0 0 0 0 0 0 
0 0 0 0 0 0 0 0 0 
0 0 0 0 0 0 0 0 0 
0 0 0 0 0 0 0 0 0 
0 0 0 0 0 0 0 0 0 
0 0 0 0 0 0 0 0 0 
0 0 0 0 0 0 0 0 0 
0 0 0 0 0 0 0 0 0 
0 0 0 0 0 0 0 0 0 
0 0 0 0 0 0 0 0 0 
0 0 0 0 0 0 0 0 0 
0 0 0 0 0 0 0 0 0 
0 0 0 0 0 0 0 0 0 
0 0 0 0 0 0 0 0 0 
0 0 0 0 0 0 0 0 0 
0 0 0 0 0 0 0 0 0 
0 0 0 0 0 0 0 0 0 
0 0 0 0 0 0 0 0 0 
0 0 0 0 0 0 0 0 0 
0 0 0 0 0 0 0 0 0 
0 0 0 0 0 0 0 0 0 
0 0 0 0 0 0 0 0 0 
0 0 0 0 0 0 0 0 0 
0 0 0 0 0 0 0 0 0 
0 0 0 0 0 0 0 0 0 
0 0 0 0 0 0 0 0 0 
0 0 0 0 0 0 0 0 0 
0 0 0 0 0 0 0 0 0 
0 0 0 0 0 0 0 0 0 
0 0 0 0 0 0 0 0 0 
0 0 0 0 0 0 0 0 0 
0 0 0 0 0 0 0 0 0 
0 0 0 0 0 0 0 0 0 
0 0 0 0 0 0 0 0 0 
0 0 0 0 0 0 0 0 0 
0 0 0 0 0 0 0 0 0 
0 0 0 0 0 0 0 0 0 
0 0 0 0 0 0 0 0 0 
0 0 0 0 0 0 0 0 0 
0 0 0 0 0 0 0 0 0 
0 0 0 0 0 0 0 0 0 
0 0 0 0 0 0 0 0 0 
0 0 0 0 0 0 0 0 0 
0 0 0 0 0 0 0 0 0 
0 0 0 0 0 0 0 0 0 
0 0 0 0 0 0 0 0 0 
0 0 0 0 0 0 0 0 0 
0 0 0 0 0 0 0 0 0 
0 0 0 0 0 0 0 0 0 
0 0 0 0 0 0 0 0 0 
0 0 0 0 0 0 0 0 0 
0 0 0 0 0 0 0 0 0 
0 0 0 0 0 0 0 0 0 
0 0 0 0 0 0 0 0 0 
0 0 0 0 0 0 0 0 0 
0 0 0 0 0 0 0 0 0 
0 0 0 0 0 0 0 0 0 
0 0 0 0 0 0 0 0 0 
0 0 0 0 0 0 0 0 0 
0 0 0 0 0 0 0 0 0 
0 0 0 0 0 0 0 0 0 
0 0 0 0 0 0 0 0 0 
0 0 0 0 0 0 0 0 0 
0 0 0 0 0 0 0 0 0 
0 0 0 0 0 0 0 0 0 
0 0 0 0 0 0 0 0 0 
0 0 0 0 0 0 0 0 0 
0 0 0 0 0 0 0 0 0 
0 0 0 0 0 0 0 0 0 
0 0 0 0 0 0 0 0 0 
0 0 0 0 0 0 0 0 0 
0 0 0 0 0 0 0 0 0 
0 0 0 0 0 0 0 0 0 
0 0 0 0 0 0 0 0 0 
0 0 0 0 0 0 0 0 0 
0 0 0 0 0 0 0 0 0 
0 0 0 0 0 0 0 0 0 
0 0 0 0 0 0 0 0 0 
0 0 0 0 0 0 0 0 0 
0 0 0 0 0 0 0 0 0 
0 0 0 0 0 0 0 0 0 
0 0 0 0 0 0 0 0 0 
0 0 0 0 0 0 0 0 0 
0 0 0 0 0 0 0 0 0 
0 0 0 0 0 0 0 0 0 
0 0 0 0 0 0 0 0 0 
0 0 0 0 0 0 0 0 0 
0 0 0 0 0 0 0 0 0 
0 0 0 0 0 0 0 0 0 
0 0 0 0 0 0 0 0 0 
0 0 0 0 0 0 0 0 0 
0 0 0 0 0 0 0 0 0 
0 0 0 0 0 0 0 0 0 
0 0 0 0 0 0 0 0 0 
0 0 0 0 0 0 0 0 0 
0 0 0 0 0 0 0 0 0 
0 0 0 0 0 0 0 0 0 
0 0 0 0 0 0 0 0 0 
0 0 0 0 0 0 0 0 0 
0 0 0 0 0 0 0 0 0 
0 0 0 0 0 0 0 0 0 
0 0 0 0 0 0 0 0 0 
0 0 0 0 0 0 0 0 0 
0 0 0 0 0 0 0 0 0 
0 0 0 0 0 0 0 0 0 
0 0 0 0 0 0 0 0 0 
0 0 0 0 0 0 0 0 0 
0 0 0 0 0 0 0 0 0 
0 0 0 0 0 0 0 0 0 
0 0 0 0 0 0 0 0 0 
0 0 0 0 0 0 0 0 0 
0 0 0 0 0 0 0 0 0 
0 0 0 0 0 0 0 0 0 
0 0 0 0 0 0 0 0 0 
0 0 0 0 0 0 0 0 0 
0 0 0 0 0 0 0 0 0 
0 0 0 0 0 0 0 0 0 
0 0 0 0 0 0 0 0 0 
0 0 0 0 0 0 0 0 0 
0 0 0 0 0 0 0 0 0 
0 0 0 0 0 0 0 0 0 
0 0 0 0 0 0 0 0 0 
0 0 0 0 0 0 0 0 0 
0 0 0 0 0 0 0 0 0 
0 0 0 0 0 0 0 0 0 
0 0 0 0 0 0 0 0 0 
0 0 0 0 0 0 0 0 0 
0 0 0 0 0 0 0 0 0 
0 0 0 0 0 0 0 0 0 
0 0 0 0 0 0 0 0 0 
0 0 0 0 0 0 0 0 0 
0 0 0 0 0 0 0 0 0 
0 0 0 0 0 0 0 0 0 
0 0 0 0 0 0 0 0 0 
0 0 0 0 0 0 0 0 0 
0 0 0 0 0 0 0 0 0 
0 0 0 0 0 0 0 0 0 
0 0 0 0 0 0 0 0 0 
0 0 0 0 0 0 0 0 0 
0 0 0 0 0 0 0 0 0 
0 0 0 0 0 0 0 0 0 
0 0 0 0 0 0 0 0 0 
0 0 0 0 0 0 0 0 0 
0 0 0 0 0 0 0 0 0 
0 0 0 0 0 0 0 0 0 
0 0 0 0 0 0 0 0 0 
0 0 0 0 0 0 0 0 0 
0 0 0 0 0 0 0 0 0 
0 0 0 0 0 0 0 0 0 
0 0 0 0 0 0 0 0 0 
0 0 0 0 0 0 0 0 0 
0 0 0 0 0 0 0 0 0 
0 0 0 0 0 0 0 0 0 
0 0 0 0 0 0 0 0 0 
0 0 0 0 0 0 0 0 0 
0 0 0 0 0 0 0 0 0 
0 0 0 0 0 0 0 0 0 
0 0 0 0 0 0 0 0 0 
0 0 0 0 0 0 0 0 0 
0 0 0 0 0 0 0 0 0 
0 0 0 0 0 0 0 0 0 
0 0 0 0 0 0 0 0 0 
0 0 0 0 0 0 0 0 0 
0 0 0 0 0 0 0 0 0 
0 0 0 0 0 0 0 0 0 
0 0 0 0 0 0 0 0 0 
0 0 0 0 0 0 0 0 0 
0 0 0 0 0 0 0 0 0 
0 0 0 0 0 0 0 0 0 
0 0 0 0 0 0 0 0 0 
0 0 0 0 0 0 0 0 0 
0 0 0 0 0 0 0 0 0 
0 0 0 0 0 0 0 0 0 
0 0 0 0 0 0 0 0 0 
0 0 0 0 0 0 0 0 0 
0 0 0 0 0 0 0 0 0 
0 0 0 0 0 0 0 0 0 
0 0 0 0 0 0 0 0 0 
0 0 0 0 0 0 0 0 0 
0 0 0 0 0 0 0 0 0 
0 0 0 0 0 0 0 0 0 
0 0 0 0 0 0 0 0 0 
0 0 0 0 0 0 0 0 0 
0 0 0 0 0 0 0 0 0 
0 0 0 0 0 0 0 0 0 
0 0 0 0 0 0 
v 3 1214 double
-0.0998774 -0.409822 -5.37945e-15 -0.18641 -0.590235 -8.98513e-15 -0.0913809 -0.813579 -1.77154e-15 
-0.147606 -0.613783 1.83636e-15 -0.233677 -0.458002 -1.77081e-15 -0.272715 -0.447225 1.83637e-15 
-0.122893 -0.562639 9.05068e-15 -0.439853 -0.424569 -1.77081e-15 0.0859463 -0.773499 -2.70389e-16 
-0.223073 -0.621431 5.44423e-15 -0.778793 -0.485538 1.83709e-15 -0.0282948 -0.575953 -1.77155e-15 
-0.155522 -0.593877 -8.98585e-15 -0.485345 -0.528198 -8.98586e-15 -0.113778 -0.365571 5.44352e-15 
-0.0185988 -0.0523543 -0.317134 -0.46422 -0.358403 5.44423e-15 -0.271225 -0.505264 5.44352e-15 
0.0950887 -0.574461 -5.37943e-15 0.00702875 -0.533665 -8.98586e-15 -0.0728213 -0.404399 -8.78079e-15 
0.0267071 -0.382094 -8.98585e-15 -0.454728 -0.488477 -5.37872e-15 -0.104054 -0.481303 5.44424e-15 
-0.495957 -0.44606 9.0514e-15 -0.194565 -0.576322 -8.98512e-15 -0.594093 -0.403997 5.44423e-15 
-0.0364449 -0.449537 5.44424e-15 -0.0531779 -0.557838 -5.37872e-15 -0.530421 -0.538379 5.44352e-15 
-0.0330949 -0.433616 1.83709e-15 -0.000711153 -0.548632 -8.98586e-15 -0.000915907 -0.4864 5.03005e-13 
-0.0147235 -0.503796 -1.77155e-15 -0.415247 -0.411509 -5.37871e-15 -0.100349 -0.385773 -8.98585e-15 
-0.083883 -0.446812 -8.98513e-15 -0.409027 -0.517017 5.44425e-15 0.065273 -0.639922 5.44424e-15 
-0.112645 -0.327858 -1.77154e-15 -0.400016 -0.367144 1.83708e-15 -0.429482 -0.523151 5.44425e-15 
-0.0245307 -0.432338 5.44423e-15 -0.110585 -0.449173 0.0490151 -0.159603 -0.332925 -1.77155e-15 
-0.104403 -0.368359 -1.77153e-15 -0.487934 -0.252766 9.0514e-15 -0.525943 -0.303857 -8.98585e-15 
-0.189764 -0.221122 5.44424e-15 -0.282785 -0.344592 -1.77082e-15 -0.544113 -0.396061 -5.37871e-15 
-0.358154 -0.252984 9.0514e-15 -0.458031 -0.309267 -1.8298e-12 -0.305064 -0.245826 -7.75885e-14 
-0.269512 -0.222504 -5.37944e-15 -0.0813456 -0.243875 -1.77155e-15 0 0 -0.261131 
-0.24089 -0.203807 -5.37872e-15 -0.130546 -0.234789 1.83635e-15 -0.079331 -0.254173 -1.77154e-15 
-0.13323 -0.322734 -5.55054e-15 -0.531493 -0.252255 1.83636e-15 -0.539031 -0.316707 -1.77081e-15 
0 0 -0.262301 -0.667376 -0.17767 9.05066e-15 -0.527721 -0.111603 -1.77155e-15 
0.0317654 -0.336088 1.83708e-15 -0.271357 -0.580842 9.05139e-15 -0.196407 -0.275391 5.44424e-15 
-0.0944741 -0.296123 9.05139e-15 -0.175076 -0.277286 5.44424e-15 -0.424569 -0.0721947 2.64078e-15 
-0.289838 -0.190374 -1.77082e-15 -0.0394287 -0.103113 1.83636e-15 -0.0956571 -0.171436 9.0514e-15 
-0.131759 -0.307147 -8.98584e-15 -0.0320745 -0.348371 5.44352e-15 -0.498529 -0.336146 -1.77081e-15 
-0.00185212 -0.198044 5.44352e-15 -0.544434 -0.119805 -5.37945e-15 -0.2612 -0.229423 9.05139e-15 
0.0398753 -0.208637 -5.37944e-15 -0.3459 -0.27237 -8.98513e-15 -0.13611 -0.153377 9.05067e-15 
-0.0338094 -0.138671 5.44424e-15 -0.0699538 -0.207344 9.05068e-15 -0.296803 -0.210145 -8.98585e-15 
-0.328668 -0.105279 -8.98584e-15 -0.190335 -0.183098 1.83708e-15 -0.180693 -0.167766 1.83709e-15 
-0.170887 -0.216835 -8.98585e-15 0.0200545 -0.195974 9.05139e-15 -0.0786259 -0.178465 5.44351e-15 
-0.126639 -0.146048 5.44352e-15 -0.189885 -0.115599 3.58991e-14 -0.104319 -0.16333 9.05067e-15 
-0.112892 -0.272871 9.05066e-15 -0.0520996 -0.173269 9.05139e-15 -0.291937 -0.13316 -1.77155e-15 
-0.0072391 -0.303438 -1.77082e-15 -0.106855 -0.129802 0.0513181 0.0424266 -0.224801 -8.98585e-15 
-0.266103 -0.0954887 -5.37872e-15 -0.358506 -0.215242 5.44352e-15 -0.179508 -0.0892691 1.83708e-15 
0.0643836 -0.149228 1.83636e-15 -0.283611 -0.20839 9.05139e-15 0.0129798 -0.0460046 -8.98585e-15 
-0.0322487 -0.112514 -5.37944e-15 -0.499629 -0.118356 -8.98586e-15 -0.315833 -0.164396 -5.37872e-15 
-0.142792 0.0097642 9.0514e-15 -0.137023 0.0126081 -8.98586e-15 -0.00620575 -0.153802 5.44424e-15 
-0.128126 -0.163503 -5.37871e-15 -0.0677143 -0.147335 -5.37872e-15 0.00071708 -0.0999276 -1.77082e-15 
-0.578387 -0.273241 -9.41669e-12 -0.0702099 -0.0813391 1.83635e-15 -0.546652 -0.19829 1.27442e-07 
-0.271256 -0.0762947 9.05139e-15 -0.248259 -0.192275 -8.98586e-15 -0.201708 -0.110442 5.44352e-15 
0.105069 -0.137915 9.05067e-15 -0.548673 -0.237362 -8.98513e-15 -0.0554962 -0.0508615 0.00417934 
-0.0823314 -0.0275343 0.00321168 -0.12549 -0.108388 -0.00129344 -0.158354 -0.051567 1.83636e-15 
-0.312649 -0.0242755 9.05139e-15 -0.106018 -0.160442 9.05067e-15 -0.244078 -0.0432024 -8.98585e-15 