# vtk DataFile Version 4.0
Generated by LIGGGHTS
ASCII
DATASET POLYDATA
POINTS 1500 float
-0.0817342 -0.221249 0.00149966 -0.0608826 -0.188447 0.00149966 -0.218514 -0.169779 0.00149966 
-0.155154 -0.164658 0.00149966 -0.0529489 -0.170768 0.00149966 -0.105236 -0.132679 0.00170779 
-0.0418956 -0.123661 0.00149966 -0.0113617 -0.0982833 0.00149966 -0.00686242 -0.101046 0.00349163 
-0.0214356 -0.0823695 0.00149966 -0.0461024 -0.0698097 0.00149966 -0.162609 -0.0670634 0.00149966 
-0.0908293 -0.0552344 0.00149966 -0.0423705 -0.0512279 0.00149966 -0.16613 -0.0438011 0.00149966 
-0.0798234 -0.0454758 0.00149966 -0.0693098 -0.0464877 0.00149966 -0.0111713 -0.0434646 0.00149966 
-0.040426 -0.036757 0.00149983 -0.0201694 -0.0242622 0.0027094 -0.0571919 -0.0250584 0.00149966 
-0.307548 -0.0162615 0.00149966 -0.064867 -0.0148212 0.00149966 -0.0384996 -0.0213218 0.00149966 
-0.0115997 -0.0210673 0.00149663 -0.0240121 -0.0167873 0.00149966 -0.0567038 -0.0138929 0.00149966 
-0.0171965 -0.00979185 0.00149966 -0.00407804 -0.00777686 0.00149966 -0.164868 -0.00742002 0.00149966 
-0.179885 -0.000174411 0.00149966 -0.0950038 -0.0287171 0.117782 -0.0861066 -0.313623 0.00581621 
-0.0243239 -0.284245 0.00227023 -0.0342452 -0.275194 0.00161131 -0.0735983 -0.266198 0.00226582 
-0.0270907 -0.235439 0.00305616 -0.053346 -0.222229 0.00454866 -0.0295464 -0.210281 0.00188784 
-0.131843 -0.204372 0.00773883 -0.0524135 -0.20273 0.00251309 -0.0393652 -0.203193 0.0029507 
-0.132181 -0.19242 0.00229919 -0.079534 -0.188916 0.00323653 -0.220158 -0.18608 0.00201376 
-0.0922824 -0.171237 0.00336227 -0.110594 -0.167302 0.00352402 -0.0537776 -0.166671 0.0036167 
-0.0073185 -0.154762 0.00216184 -0.109684 -0.153964 0.00152583 -0.0758594 -0.139327 0.0017431 
-0.0392758 -0.141173 0.00232578 -0.161097 -0.133692 0.00303188 -0.0645816 -0.133443 0.00151341 
-0.113715 -0.129475 0.00357477 -0.0883935 -0.113099 0.00196357 -0.0245922 -0.119455 0.00164056 
-0.214901 -0.110295 0.00216714 -0.165542 -0.105837 0.0016904 -0.114112 -0.105698 0.00505706 
-0.0827016 -0.106455 0.00157963 -0.00928154 -0.102823 0.00257963 -0.0322272 -0.0952301 0.00284359 
-0.0205652 -0.0995501 0.00206414 -0.114928 -0.0922334 0.0027888 -0.0230564 -0.091668 0.00177833 
-0.0216832 -0.088311 0.00152939 -0.0146701 -0.0896978 0.00228174 -0.0908448 -0.0822958 0.00155098 
-0.0483379 -0.0853896 0.00149785 -0.0329235 -0.0836488 0.0015077 -0.0892319 -0.0838126 0.00581812 
-0.189476 -0.0778534 0.00444876 -0.13645 -0.0813708 0.00467391 -0.127081 -0.0674781 0.00312302 
-0.0550018 -0.0707392 0.00378519 -0.0381014 -0.0734136 0.00171974 -0.102649 -0.0662497 0.00218106 
-0.0267199 -0.059598 0.00356284 -0.0432309 -0.0580241 0.00270824 -0.0945736 -0.0542812 0.00528937 
-0.0914894 -0.049686 0.00288603 -0.0154916 -0.0511264 0.00171194 -0.138576 -0.0537952 0.00218376 
-0.0408208 -0.0517135 0.00494441 -0.0659654 -0.0431112 0.00300938 -0.0439886 -0.0452904 0.0015095 
-0.029648 -0.0424555 0.00421065 -0.150293 -0.0386658 0.00249248 -0.0595988 -0.0358131 0.00196825 
-0.016587 -0.036444 0.00151003 -0.0119812 -0.0395854 0.00363391 -0.069567 -0.0320626 0.0019014 
-0.0104802 -0.0325677 0.00258263 -0.222799 -0.0327557 0.00153182 -0.0712283 -0.0238478 0.0017046 
-0.0492049 -0.0230735 0.00199226 -0.0437885 -0.0257027 0.00192754 -0.0316395 -0.0274906 0.0015137 
-0.0292186 -0.0255404 0.00152117 -0.186671 -0.0258021 0.00196807 -0.0895954 -0.0167756 0.00354904 
-0.0479072 -0.020347 0.00214435 -0.0265584 -0.0219498 0.00250097 -0.0116308 -0.0174988 0.00216388 
-0.00943838 -0.0158342 0.00336024 -0.00636011 -0.0159536 0.00160405 -0.236781 -0.0148435 0.00775365 
-0.149795 -0.0166727 0.00362417 -0.00602878 -0.0126898 0.00157165 -0.022771 -0.0107668 0.00201944 
-0.0108414 -0.0117367 0.00149762 -0.206932 -0.00393815 0.00347337 -0.200253 -0.011925 0.00303616 
-0.0324493 -0.00860601 0.00232069 -0.0516329 -0.00909439 0.00199437 -0.0865366 -0.000841094 0.00308512 
-0.0609309 -0.003377 0.00424918 -0.0646042 -0.00298797 0.118489 -0.0867801 -0.234891 0.0055863 
-0.110951 -0.175422 0.00389422 -0.0709053 -0.16678 0.00413031 -0.252236 -0.146964 0.00435001 
-0.188093 -0.127555 0.00555346 -0.0729151 -0.127622 0.00526457 -0.129034 -0.129438 0.00238438 
-0.0926724 -0.117291 0.00547212 -0.0329222 -0.105382 0.00291529 -0.0237542 -0.106759 0.00782119 
-0.0550862 -0.101742 0.00307302 -0.0207621 -0.0668763 0.00219391 -0.00764939 -0.0419241 0.00455285 
-0.020576 -0.0384661 0.00397198 -0.0742625 -0.0246506 0.0031815 -0.022127 -0.0250816 0.00515102 
-0.0175415 -0.0218413 0.00745841 -0.0159367 -0.0175283 0.00548182 -0.0497179 -0.00272533 0.00488756 
-0.055572 -0.154443 0.0111753 -0.208043 -0.155021 0.00487624 -0.0448657 -0.119469 0.00893668 
-0.0236072 -0.117855 0.0110585 -0.0633869 -0.0905199 0.00523983 -0.174042 -0.0622533 0.00183047 
-0.0435175 -0.0472757 0.00857356 -0.171955 -0.0470189 0.00595232 -0.0657407 -0.0396889 0.00729935 
-0.0625037 -0.0389525 0.00757704 -0.244633 -0.0394342 0.0017669 -0.106606 -0.0342023 0.00221108 
-0.21411 -0.00728857 0.00813526 -0.0816761 -0.00815821 0.00216754 -0.00425082 -0.193525 0.00262294 
-0.111784 -0.158469 0.0133259 -0.205658 -0.126688 0.00577416 -0.157322 -0.125443 0.00950893 
-0.0126373 -0.113393 0.00617682 -0.0132793 -0.0694152 0.00325081 -0.113332 -0.0532456 0.0079869 
-0.0327959 -0.0365034 0.00579906 -0.0402247 -0.0438867 0.0042429 -0.0315507 -0.0269983 0.0117297 
-0.0737006 -0.018872 0.00792829 -0.0590909 -0.0402183 0.115075 -0.261714 -0.108793 0.00902654 
-0.0687732 -0.108368 0.00918858 -0.0384895 -0.107158 0.0172121 -0.147736 -0.0853795 0.00995749 
-0.00229699 -0.0824219 0.0121121 -0.080483 -0.0436001 0.00824706 -0.116876 -0.0313723 0.00908226 
-0.0157278 -0.0242742 0.0107708 -0.115408 -0.0220022 0.0120329 -0.0526228 -0.020917 0.006495 
-0.160771 -0.0166081 0.0144153 -0.0982471 -0.00275101 0.00998093 -0.0130564 -0.209381 0.0117281 
-0.0811377 -0.18409 0.0187341 -0.0259723 -0.159426 0.0133507 -0.122896 -0.104163 0.010308 
-0.134191 -0.0741704 0.0167383 -0.0971821 -0.0631974 0.0170806 -0.0748344 -0.0473033 0.011525 
-0.0271176 -0.0404887 0.0159408 -0.0884846 -0.030023 0.0135034 -0.0804272 -0.022594 0.0151784 
-0.033852 -0.0101112 0.0179993 -0.195499 -0.0769037 0.0203064 -0.00968385 -0.079107 0.0133133 
-0.0265269 -0.0724878 0.0171337 -0.188265 -0.0686656 0.0230868 -0.0871454 -0.0225839 0.0169417 
-0.0105861 -0.138355 0.020848 -0.0894153 -0.123931 0.0204512 -0.109668 -0.107237 0.0233562 
-0.0830053 -0.101334 0.0186678 -0.0884404 -0.0626612 0.0208184 -0.0328063 -0.00715011 0.0221938 
-0.0958613 -0.00909223 0.0172003 -0.14204 -0.192848 0.02248 -0.130213 -0.153543 0.0223694 
-0.0808078 -0.045416 0.0237237 -0.130416 -0.0265658 0.0247908 -0.0400273 -0.021823 0.023232 
-0.0125743 -0.246411 0.0257314 -0.0326093 -0.170731 0.0279443 -0.107094 -0.112717 0.0227911 
-0.0327029 -0.0168125 0.0249147 -0.0411482 -0.235897 0.0260487 -0.0912556 -0.106606 0.0270963 
-0.115823 -0.0623706 0.0323842 -0.0808466 -0.0553406 0.029886 -0.0618508 -0.0319813 0.0303979 
-0.125139 -0.0193258 0.0283107 -0.0264638 -0.0161623 0.0311762 -0.123236 -0.0108292 0.0268402 
-0.139027 -0.184731 0.0278709 -0.100085 -0.130511 0.0336421 -0.069677 -0.0842759 0.030585 
-0.00776233 -0.030739 0.0327491 -0.177509 -0.00553589 0.0345693 -0.0852062 -0.189774 0.0319629 
-0.007223 -0.139752 0.0359808 -0.0478595 -0.0406574 0.038368 -0.051097 -0.0322853 0.0380919 
-0.0498173 -0.0050234 0.0361581 -0.059922 -0.123314 0.0369223 -0.0318729 -0.040018 0.0366161 
-0.0169959 -0.0462845 0.038655 -0.081149 -0.0145036 0.0392065 -0.0693793 -0.191222 0.0425147 
-0.02381 -0.180424 0.0439191 -0.104319 -0.153697 0.0435703 -0.0365778 -0.125494 0.0444138 
-0.0371064 -0.0711755 0.0468134 -0.0260739 -0.0334958 0.0406586 -0.0122005 -0.0203396 0.116591 
-0.0347275 -0.198115 0.0438758 -0.0218698 -0.14156 0.0485889 -0.128055 -0.104551 0.0461926 
-0.0835068 -0.0859649 0.0474931 -0.0386603 -0.0746573 0.0455369 -0.0827581 -0.056475 0.0481606 
-0.00465809 -0.0574157 0.0474958 -0.0155803 -0.0264344 0.0458904 -0.0458184 -0.172358 0.0475346 
-0.0567432 -0.148247 0.0508671 -0.151842 -0.0851873 0.0495079 -0.0811837 -0.0665381 0.0486492 
-0.00931455 -0.0493123 0.0511179 -0.069629 -0.0489818 0.0498954 -0.118588 -0.0437842 0.0511903 
-0.117625 -0.0194182 0.0509275 -0.113969 -0.0165627 0.0473972 -0.0138244 -0.0935927 0.0512054 
-0.0248845 -0.053008 0.0471155 -0.089354 -0.00479268 0.0532463 -0.0562325 -0.0621684 0.0579461 
-0.100609 -0.0463874 0.0505205 -0.0044009 -0.0358367 0.0549269 -0.169505 -0.0215586 0.0568615 
-0.0131559 -0.21419 0.0584967 -0.138367 -0.0909604 0.0553822 -0.0308057 -0.0522721 0.0597492 
-0.0389795 -0.0109775 0.057639 -0.0788162 -0.0219017 0.120294 -0.140618 -0.197299 0.0559841 
-0.00930549 -0.129436 0.0587639 -0.0926359 -0.111742 0.0634106 -0.0978314 -0.100271 0.0619942 
-0.280782 -0.0822765 0.0578781 -0.0617655 -0.0718742 0.0570142 -0.00774029 -0.0296882 0.0633751 
-0.183555 -0.00490152 0.065112 -0.221558 -0.023064 0.0662114 -0.11816 -0.0967644 0.0679465 
-0.113877 -0.0573152 0.067893 -0.152506 -0.0443148 0.0701691 -0.106117 -0.0166391 0.0687181 
-0.0234699 -0.119006 0.0746466 -0.0322933 -0.0480779 0.070546 -0.0442415 -0.0299834 0.0763108 
-0.0603132 -0.0211655 0.0701633 -0.0673245 -0.110432 0.0749744 -0.135886 -0.172284 0.0757408 
-0.13249 -0.0088417 0.0809534 -0.0329331 -0.0359502 0.0843356 -0.0339716 -0.0179379 0.0799991 
-0.0877477 -0.0313115 0.0860192 -0.00198099 -0.0271423 0.0887256 -0.0692648 -0.0227709 0.0869943 
-0.0772564 -0.0045376 0.0922493 -0.0673569 -0.0627177 0.0955963 -0.0721313 -0.0559173 0.093566 
-0.0843548 -0.0342436 0.0932391 -0.0464498 -0.0810951 0.100665 -0.0546773 -0.0606359 0.102051 
-0.0654566 -0.0294551 0.100386 -0.0680871 -0.026611 0.0931398 -0.00855732 -0.0228282 0.10102 
-0.0469991 -0.014104 0.100262 -0.0708457 -0.00294179 0.100491 -0.0369944 -0.0655106 0.103816 
-0.0680228 -0.0596033 0.0964372 -0.0237488 -0.0453433 0.0941387 -0.057109 -0.0397342 0.101794 
-0.00567301 -0.0195445 0.0960187 -0.0933548 -0.0137677 0.0957104 -0.00442071 -0.0989228 0.10054 
[...]
POINT_DATA 1500
FIELD FieldData 7
id 1 1500 int
614 187 332 316 52 913 618 457 889 
29 314 615 456 467 910 676 39 997 
901 845 499 486 1457 647 1145 626 384 
1394 1478 1098 334 602 153 330 174 253 
1218 408 1153 155 184 228 462 186 13 
157 761 762 776 928 1387 1280 1214 463 
936 1051 304 1063 919 178 759 1452 788 
758 905 84 656 1234 1209 927 319 490 
1081 642 774 903 374 1376 1281 630 177 
1235 912 1391 442 998 373 804 156 772 
852 1413 454 1005 674 1202 31 1076 612 
1226 452 11 96 1231 1222 619 1179 225 
969 250 590 677 922 1403 327 1182 972 
925 604 379 1073 478 617 307 4 971 
1365 1431 589 30 3 310 357 1223 77 
147 64 23 405 929 782 806 1108 1203 
1068 1382 627 393 48 506 1058 1122 1302 
110 1084 914 835 488 1224 107 1100 829 
1238 306 777 1358 1210 921 780 487 163 
344 58 1045 1267 610 1148 1207 634 469 
934 1383 356 1233 1441 1198 1405 1385 160 
1372 1410 1052 757 1374 633 980 1065 80 
1053 991 755 1377 1228 906 847 862 483 
1010 37 688 15 1125 328 326 1378 808 
162 954 397 578 333 190 1080 1266 479 
1014 10 628 229 1213 923 760 990 1300 
1109 1200 485 528 1359 1085 1390 803 466 
1196 1070 620 24 171 1055 388 884 25 
165 481 692 932 973 1245 909 853 1056 
550 673 336 159 908 38 391 1375 937 
179 464 1497 1221 1074 952 1057 1060 1121 
1232 421 1069 947 1211 623 1412 1386 700 
1357 1428 303 606 1039 1120 767 1354 1361 
1371 182 1368 1373 1380 1208 16 34 1062 
359 36 152 1352 1071 151 9 1353 28 
1086 382 1079 1204 1364 21 1082 786 480 
915 1227 337 931 1075 638 460 771 477 
764 311 629 603 313 639 778 607 781 
769 763 7 27 20 302 1078 167 916 
317 935 305 766 938 1116 175 465 787 
754 173 458 726 664 76 366 1350 611 
502 494 353 1017 1332 1093 522 1396 1189 
792 652 295 172 650 1402 516 492 565 
798 365 1123 429 213 520 523 278 158 
352 622 571 72 512 221 149 671 1242 
1088 320 215 315 640 965 1370 75 1273 
1279 222 40 1205 451 1186 1287 1094 1253 
1114 641 732 1381 1241 805 461 822 963 
56 665 1 791 809 1220 360 431 959 
960 1225 1064 202 208 1409 66 1023 799 
625 61 1416 1415 933 765 581 1254 198 
1406 867 562 1255 195 285 943 1105 1251 
654 1124 680 721 942 1212 145 870 1097 
282 1417 45 351 1111 1113 1275 349 820 
1169 817 49 1424 1264 519 648 430 368 
197 375 1422 697 219 655 819 653 904 
868 926 93 605 1308 669 1104 534 1252 
196 122 814 1239 818 645 974 324 355 
1249 616 446 1103 361 511 169 1392 1426 
1059 691 1265 1183 185 1367 1259 1106 1117 
212 283 1393 273 1261 1154 1099 646 946 
42 209 240 265 489 719 1229 1270 415 
288 206 73 1310 566 1112 1401 1318 918 
1257 141 1230 475 887 496 342 1263 797 
1329 1472 63 865 70 1119 1362 371 1411 
6 815 309 644 53 32 1246 1217 826 
189 2 218 71 1498 453 1256 624 563 
1471 970 515 738 953 1408 535 1240 220 
1268 879 199 498 670 811 17 586 1107 
712 556 911 1095 1272 1340 135 962 1067 
1379 1418 1247 1271 468 301 1399 1248 1339 
207 1269 1276 773 59 347 513 1414 1419 
192 510 533 62 1400 1369 35 793 354 
753 600 582 115 966 948 380 1077 1398 
930 217 1395 1102 55 50 47 1297 204 
203 1262 951 1389 67 1243 1421 666 1089 
345 362 1250 214 504 495 939 348 955 
343 521 662 358 1090 501 660 801 657 
491 956 216 944 800 794 790 518 497 
957 191 945 369 796 907 341 54 60 
44 1118 340 46 205 57 961 350 507 
825 51 968 74 69 376 651 524 659 
672 807 816 668 193 1366 425 709 752 
471 402 470 263 112 154 1277 109 308 
266 403 482 329 79 227 275 1236 455 
289 1437 896 269 751 5 710 1285 1323 
785 270 1130 459 104 693 83 863 1304 
441 1305 727 539 1083 783 346 593 1164 
239 407 33 252 1126 245 547 396 1135 
1152 1143 1458 106 843 168 1150 1456 849 
703 834 632 1455 554 1147 559 321 1009 
979 1006 381 392 725 964 994 474 779 
435 1307 775 828 1439 325 1136 1289 1206 
832 12 541 1388 1293 261 241 1290 621 
18 1162 390 387 1054 1191 1141 1484 26 
108 170 689 850 546 363 1341 1344 802 
188 1301 983 267 902 377 711 472 277 
789 924 259 271 1027 254 473 194 484 
873 681 97 1313 527 412 609 977 860 
679 1420 1172 529 1219 246 98 1012 708 
231 1180 1061 144 572 1425 713 1449 1215 
857 1000 784 1134 286 837 1363 532 976 
823 985 577 717 41 1459 1066 597 1448 
1430 704 768 249 1355 1429 1201 560 1216 
1142 500 841 1146 383 146 838 1037 833 
1237 635 493 433 978 530 1087 237 323 
1451 1440 1194 1331 698 1159 1311 90 675 
1260 684 257 631 695 367 255 102 1432 
678 105 1091 598 588 81 854 993 1303 
312 1356 1321 1336 996 1454 161 1175 117 
318 567 543 86 1161 22 82 555 1309 
1007 1435 1384 88 869 339 1177 1011 1404 
1433 999 230 274 1002 1330 235 1351 917 
1139 573 1483 576 1461 920 608 281 1160 
1072 280 1427 424 8 166 690 540 1447 
1131 1282 1133 1157 591 1434 831 1286 839 
1284 636 538 509 855 1462 827 1444 1460 
1438 756 696 1312 94 99 262 101 549 
87 701 95 1294 1306 103 85 544 1138 
1295 233 238 1443 1436 1292 232 1163 260 
1144 1278 406 830 395 1151 1283 400 1158 
236 551 705 553 545 401 694 247 987 
981 858 851 526 410 682 846 248 699 
557 552 399 1127 1132 111 1156 78 685 
1149 982 992 986 404 91 398 378 409 
848 561 531 558 707 385 844 859 389 
294 118 1188 176 1476 114 686 949 821 
861 234 878 882 856 436 1170 1129 715 
291 687 1173 210 967 836 574 180 736 
1044 121 370 272 875 139 643 372 874 
724 331 1026 613 1496 505 287 747 958 
1016 434 244 596 1193 411 113 575 1001 
1036 876 200 14 872 427 1450 418 1485 
658 100 663 1048 279 1407 1274 1181 749 
19 1171 824 1174 898 1475 866 428 1348 
68 731 422 1013 1494 745 1423 1032 1492 
1190 503 706 1096 123 1019 564 746 1176 
864 1049 741 1046 890 508 1020 595 888 
718 299 437 126 322 335 414 941 181 
1004 1349 148 1296 840 1345 667 601 1003 
1038 1335 649 730 735 568 127 243 251 
899 723 1453 1324 637 702 891 897 1185 
125 1244 445 1488 448 394 580 386 1320 
514 92 413 1442 988 164 599 1342 1197 
975 256 812 136 116 871 416 1445 1137 
1165 211 517 132 1029 1299 1360 748 444 
131 300 258 750 1258 447 1101 1018 1028 
364 1397 1500 1317 134 476 683 720 1140 
1042 895 1346 536 583 892 1464 1446 1327 
1490 770 1128 1319 338 950 417 223 89 
1155 1291 65 881 1495 201 940 1024 124 
525 1195 290 728 1047 570 795 1092 722 
542 449 1463 1115 989 1035 714 1031 1192 
548 1489 43 1314 140 129 584 1465 1479 
432 1199 1168 1325 1347 1288 1008 810 224 
1315 268 995 1030 1487 183 1025 1337 226 
883 1482 1298 1110 537 1474 1491 900 842 
298 1338 813 1322 1184 1466 1333 984 242 
1316 1187 1469 661 1481 1473 1480 1328 1467 
1343 1470 439 1499 150 142 1493 1015 138 
894 284 1477 1178 128 133 1486 264 120 
443 893 743 877 419 1041 587 579 585 
1166 1326 276 1050 880 440 729 119 742 
1022 739 1468 734 737 885 744 450 1033 
1334 716 569 137 1167 592 143 438 594 
423 1034 292 297 1043 130 1021 293 1040 
420 886 296 740 426 733 
type 1 1500 int
1 1 1 1 1 1 1 1 1 
1 1 1 1 1 1 1 1 1 
1 1 1 1 1 1 1 1 1 
1 1 1 1 1 1 1 1 1 
1 1 1 1 1 1 1 1 1 
1 1 1 1 1 1 1 1 1 
1 1 1 1 1 1 1 1 1 
1 1 1 1 1 1 1 1 1 
1 1 1 1 1 1 1 1 1 
1 1 1 1 1 1 1 1 1 
1 1 1 1 1 1 1 1 1 
1 1 1 1 1 1 1 1 1 
1 1 1 1 1 1 1 1 1 
1 1 1 1 1 1 1 1 1 
1 1 1 1 1 1 1 1 1 
1 1 1 1 1 1 1 1 1 
1 1 1 1 1 1 1 1 1 
1 1 1 1 1 1 1 1 1 
1 1 1 1 1 1 1 1 1 
1 1 1 1 1 1 1 1 1 
1 1 1 1 1 1 1 1 1 
1 1 1 1 1 1 1 1 1 
1 1 1 1 1 1 1 1 1 
1 1 1 1 1 1 1 1 1 
1 1 1 1 1 1 1 1 1 
1 1 1 1 1 1 1 1 1 
1 1 1 1 1 1 1 1 1 
1 1 1 1 1 1 1 1 1 
1 1 1 1 1 1 1 1 1 
1 1 1 1 1 1 1 1 1 
1 1 1 1 1 1 1 1 1 
1 1 1 1 1 1 1 1 1 
1 1 1 1 1 1 1 1 1 
1 1 1 1 1 1 1 1 1 
1 1 1 1 1 1 1 1 1 
1 1 1 1 1 1 1 1 1 
1 1 1 1 1 1 1 1 1 
1 1 1 1 1 1 1 1 1 
1 1 1 1 1 1 1 1 1 
1 1 1 1 1 1 1 1 1 
1 1 1 1 1 1 1 1 1 
1 1 1 1 1 1 1 1 1 
1 1 1 1 1 1 1 1 1 
1 1 1 1 1 1 1 1 1 
1 1 1 1 1 1 1 1 1 
1 1 1 1 1 1 1 1 1 
1 1 1 1 1 1 1 1 1 
1 1 1 1 1 1 1 1 1 
1 1 1 1 1 1 1 1 1 
1 1 1 1 1 1 1 1 1 
1 1 1 1 1 1 1 1 1 
1 1 1 1 1 1 1 1 1 
1 1 1 1 1 1 1 1 1 
1 1 1 1 1 1 1 1 1 
1 1 1 1 1 1 1 1 1 
1 1 1 1 1 1 1 1 1 
1 1 1 1 1 1 1 1 1 
1 1 1 1 1 1 1 1 1 
1 1 1 1 1 1 1 1 1 
1 1 1 1 1 1 1 1 1 
1 1 1 1 1 1 1 1 1 
1 1 1 1 1 1 1 1 1 
1 1 1 1 1 1 1 1 1 
1 1 1 1 1 1 1 1 1 
1 1 1 1 1 1 1 1 1 
1 1 1 1 1 1 1 1 1 
1 1 1 1 1 1 1 1 1 
1 1 1 1 1 1 1 1 1 
1 1 1 1 1 1 1 1 1 
1 1 1 1 1 1 1 1 1 
1 1 1 1 1 1 1 1 1 
1 1 1 1 1 1 1 1 1 
1 1 1 1 1 1 1 1 1 
1 1 1 1 1 1 1 1 1 
1 1 1 1 1 1 1 1 1 
1 1 1 1 1 1 1 1 1 
1 1 1 1 1 1 1 1 1 
1 1 1 1 1 1 1 1 1 
1 1 1 1 1 1 1 1 1 
1 1 1 1 1 1 1 1 1 
1 1 1 1 1 1 1 1 1 
1 1 1 1 1 1 1 1 1 
1 1 1 1 1 1 1 1 1 
1 1 1 1 1 1 1 1 1 
1 1 1 1 1 1 1 1 1 
1 1 1 1 1 1 1 1 1 
1 1 1 1 1 1 1 1 1 
1 1 1 1 1 1 1 1 1 
1 1 1 1 1 1 1 1 1 
1 1 1 1 1 1 1 1 1 
1 1 1 1 1 1 1 1 1 
1 1 1 1 1 1 1 1 1 
1 1 1 1 1 1 1 1 1 
1 1 1 1 1 1 1 1 1 
1 1 1 1 1 1 1 1 1 
1 1 1 1 1 1 1 1 1 
1 1 1 1 1 1 1 1 1 
1 1 1 1 1 1 1 1 1 
1 1 1 1 1 1 1 1 1 
1 1 1 1 1 1 1 1 1 
1 1 1 1 1 1 1 1 1 
1 1 1 1 1 1 1 1 1 
1 1 1 1 1 1 1 1 1 
1 1 1 1 1 1 1 1 1 
1 1 1 1 1 1 1 1 1 
1 1 1 1 1 1 1 1 1 
1 1 1 1 1 1 1 1 1 
1 1 1 1 1 1 1 1 1 
1 1 1 1 1 1 1 1 1 
1 1 1 1 1 1 1 1 1 
1 1 1 1 1 1 1 1 1 
1 1 1 1 1 1 1 1 1 
1 1 1 1 1 1 1 1 1 
1 1 1 1 1 1 1 1 1 
1 1 1 1 1 1 1 1 1 
1 1 1 1 1 1 1 1 1 
1 1 1 1 1 1 1 1 1 
1 1 1 1 1 1 1 1 1 
1 1 1 1 1 1 1 1 1 
1 1 1 1 1 1 1 1 1 
1 1 1 1 1 1 1 1 1 
1 1 1 1 1 1 1 1 1 
1 1 1 1 1 1 1 1 1 
1 1 1 1 1 1 1 1 1 
1 1 1 1 1 1 1 1 1 
1 1 1 1 1 1 1 1 1 
1 1 1 1 1 1 1 1 1 
1 1 1 1 1 1 1 1 1 
1 1 1 1 1 1 1 1 1 
1 1 1 1 1 1 1 1 1 
1 1 1 1 1 1 1 1 1 
1 1 1 1 1 1 1 1 1 
1 1 1 1 1 1 1 1 1 
1 1 1 1 1 1 1 1 1 
1 1 1 1 1 1 1 1 1 
1 1 1 1 1 1 1 1 1 
1 1 1 1 1 1 1 1 1 
1 1 1 1 1 1 1 1 1 
1 1 1 1 1 1 1 1 1 
1 1 1 1 1 1 1 1 1 
1 1 1 1 1 1 1 1 1 
1 1 1 1 1 1 1 1 1 
1 1 1 1 1 1 1 1 1 
1 1 1 1 1 1 1 1 1 
1 1 1 1 1 1 1 1 1 
1 1 1 1 1 1 1 1 1 
1 1 1 1 1 1 1 1 1 
1 1 1 1 1 1 1 1 1 
1 1 1 1 1 1 1 1 1 
1 1 1 1 1 1 1 1 1 
1 1 1 1 1 1 1 1 1 
1 1 1 1 1 1 1 1 1 
1 1 1 1 1 1 1 1 1 
1 1 1 1 1 1 1 1 1 
1 1 1 1 1 1 1 1 1 
1 1 1 1 1 1 1 1 1 
1 1 1 1 1 1 1 1 1 
1 1 1 1 1 1 1 1 1 
1 1 1 1 1 1 1 1 1 
1 1 1 1 1 1 1 1 1 
1 1 1 1 1 1 1 1 1 
1 1 1 1 1 1 1 1 1 
1 1 1 1 1 1 1 1 1 
1 1 1 1 1 1 1 1 1 
1 1 1 1 1 1 1 1 1 
1 1 1 1 1 1 1 1 1 
1 1 1 1 1 1 
i 3 1500 int
0 0 0 0 0 0 0 0 0 
0 0 0 0 0 0 0 0 0 
0 0 0 0 0 0 0 0 0 
0 0 0 0 0 0 0 0 0 
0 0 0 0 0 0 0 0 0 
0 0 0 0 0 0 0 0 0 
0 0 0 0 0 0 0 0 0 
0 0 0 0 0 0 0 0 0 
0 0 0 0 0 0 0 0 0 
0 0 0 0 0 0 0 0 0 
0 0 0 0 0 0 0 0 0 
0 0 0 0 0 0 0 0 0 
0 0 0 0 0 0 0 0 0 
0 0 0 0 0 0 0 0 0 
0 0 0 0 0 0 0 0 0 
0 0 0 0 0 0 0 0 0 
0 0 0 0 0 0 0 0 0 
0 0 0 0 0 0 0 0 0 
0 0 0 0 0 0 0 0 0 
0 0 0 0 0 0 0 0 0 
0 0 0 0 0 0 0 0 0 
0 0 0 0 0 0 0 0 0 
0 0 0 0 0 0 0 0 0 
0 0 0 0 0 0 0 0 0 
0 0 0 0 0 0 0 0 0 
0 0 0 0 0 0 0 0 0 
0 0 0 0 0 0 0 0 0 
0 0 0 0 0 0 0 0 0 
0 0 0 0 0 0 0 0 0 
0 0 0 0 0 0 0 0 0 
0 0 0 0 0 0 0 0 0 
0 0 0 0 0 0 0 0 0 
0 0 0 0 0 0 0 0 0 
0 0 0 0 0 0 0 0 0 
0 0 0 0 0 0 0 0 0 
0 0 0 0 0 0 0 0 0 
0 0 0 0 0 0 0 0 0 
0 0 0 0 0 0 0 0 0 
0 0 0 0 0 0 0 0 0 
0 0 0 0 0 0 0 0 0 
0 0 0 0 0 0 0 0 0 
0 0 0 0 0 0 0 0 0 
0 0 0 0 0 0 0 0 0 
0 0 0 0 0 0 0 0 0 
0 0 0 0 0 0 0 0 0 
0 0 0 0 0 0 0 0 0 
0 0 0 0 0 0 0 0 0 
0 0 0 0 0 0 0 0 0 
0 0 0 0 0 0 0 0 0 
0 0 0 0 0 0 0 0 0 
0 0 0 0 0 0 0 0 0 
0 0 0 0 0 0 0 0 0 
0 0 0 0 0 0 0 0 0 
0 0 0 0 0 0 0 0 0 
0 0 0 0 0 0 0 0 0 
0 0 0 0 0 0 0 0 0 
0 0 0 0 0 0 0 0 0 
0 0 0 0 0 0 0 0 0 
0 0 0 0 0 0 0 0 0 
0 0 0 0 0 0 0 0 0 
0 0 0 0 0 0 0 0 0 
0 0 0 0 0 0 0 0 0 
0 0 0 0 0 0 0 0 0 
0 0 0 0 0 0 0 0 0 
0 0 0 0 0 0 0 0 0 
0 0 0 0 0 0 0 0 0 
0 0 0 0 0 0 0 0 0 
0 0 0 0 0 0 0 0 0 
0 0 0 0 0 0 0 0 0 
0 0 0 0 0 0 0 0 0 
0 0 0 0 0 0 0 0 0 
0 0 0 0 0 0 0 0 0 
0 0 0 0 0 0 0 0 0 
0 0 0 0 0 0 0 0 0 
0 0 0 0 0 0 0 0 0 
0 0 0 0 0 0 0 0 0 
0 0 0 0 0 0 0 0 0 
0 0 0 0 0 0 0 0 0 
0 0 0 0 0 0 0 0 0 
0 0 0 0 0 0 0 0 0 
0 0 0 0 0 0 0 0 0 
0 0 0 0 0 0 0 0 0 
0 0 0 0 0 0 0 0 0 
0 0 0 0 0 0 0 0 0 
0 0 0 0 0 0 0 0 0 
0 0 0 0 0 0 0 0 0 
0 0 0 0 0 0 0 0 0 
0 0 0 0 0 0 0 0 0 
0 0 0 0 0 0 0 0 0 
0 0 0 0 0 0 0 0 0 
0 0 0 0 0 0 0 0 0 
0 0 0 0 0 0 0 0 0 
0 0 0 0 0 0 0 0 0 
0 0 0 0 0 0 0 0 0 
0 0 0 0 0 0 0 0 0 
0 0 0 0 0 0 0 0 0 
0 0 0 0 0 0 0 0 0 
0 0 0 0 0 0 0 0 0 
0 0 0 0 0 0 0 0 0 
0 0 0 0 0 0 0 0 0 
0 0 0 0 0 0 0 0 0 
0 0 0 0 0 0 0 0 0 
0 0 0 0 0 0 0 0 0 
0 0 0 0 0 0 0 0 0 
0 0 0 0 0 0 0 0 0 
0 0 0 0 0 0 0 0 0 
0 0 0 0 0 0 0 0 0 
0 0 0 0 0 0 0 0 0 
0 0 0 0 0 0 0 0 0 
0 0 0 0 0 0 0 0 0 
0 0 0 0 0 0 0 0 0 
0 0 0 0 0 0 0 0 0 
0 0 0 0 0 0 0 0 0 
0 0 0 0 0 0 0 0 0 
0 0 0 0 0 0 0 0 0 
0 0 0 0 0 0 0 0 0 
0 0 0 0 0 0 0 0 0 
0 0 0 0 0 0 0 0 0 
0 0 0 0 0 0 0 0 0 
0 0 0 0 0 0 0 0 0 
0 0 0 0 0 0 0 0 0 
0 0 0 0 0 0 0 0 0 
0 0 0 0 0 0 0 0 0 
0 0 0 0 0 0 0 0 0 
0 0 0 0 0 0 0 0 0 
0 0 0 0 0 0 0 0 0 
0 0 0 0 0 0 0 0 0 
0 0 0 0 0 0 0 0 0 
0 0 0 0 0 0 0 0 0 
0 0 0 0 0 0 0 0 0 
0 0 0 0 0 0 0 0 0 
0 0 0 0 0 0 0 0 0 
0 0 0 0 0 0 0 0 0 
0 0 0 0 0 0 0 0 0 
0 0 0 0 0 0 0 0 0 
0 0 0 0 0 0 0 0 0 
0 0 0 0 0 0 0 0 0 
0 0 0 0 0 0 0 0 0 
0 0 0 0 0 0 0 0 0 
0 0 0 0 0 0 0 0 0 
0 0 0 0 0 0 0 0 0 
0 0 0 0 0 0 0 0 0 
0 0 0 0 0 0 0 0 0 
0 0 0 0 0 0 0 0 0 
0 0 0 0 0 0 0 0 0 
0 0 0 0 0 0 0 0 0 
0 0 0 0 0 0 0 0 0 
0 0 0 0 0 0 0 0 0 
0 0 0 0 0 0 0 0 0 
0 0 0 0 0 0 0 0 0 
0 0 0 0 0 0 0 0 0 
0 0 0 0 0 0 0 0 0 
0 0 0 0 0 0 0 0 0 
0 0 0 0 0 0 0 0 0 
0 0 0 0 0 0 0 0 0 
0 0 0 0 0 0 0 0 0 
0 0 0 0 0 0 0 0 0 
0 0 0 0 0 0 0 0 0 
0 0 0 0 0 0 0 0 0 
0 0 0 0 0 0 0 0 0 
0 0 0 0 0 0 0 0 0 
0 0 0 0 0 0 0 0 0 
0 0 0 0 0 0 0 0 0 
0 0 0 0 0 0 0 0 0 
0 0 0 0 0 0 0 0 0 
0 0 0 0 0 0 0 0 0 
0 0 0 0 0 0 0 0 0 
0 0 0 0 0 0 0 0 0 
0 0 0 0 0 0 0 0 0 
0 0 0 0 0 0 0 0 0 
0 0 0 0 0 0 0 0 0 
0 0 0 0 0 0 0 0 0 
0 0 0 0 0 0 0 0 0 
0 0 0 0 0 0 0 0 0 
0 0 0 0 0 0 0 0 0 
0 0 0 0 0 0 0 0 0 
0 0 0 0 0 0 0 0 0 
0 0 0 0 0 0 0 0 0 
0 0 0 0 0 0 0 0 0 
0 0 0 0 0 0 0 0 0 
0 0 0 0 0 0 0 0 0 
0 0 0 0 0 0 0 0 0 
0 0 0 0 0 0 0 0 0 
0 0 0 0 0 0 0 0 0 
0 0 0 0 0 0 0 0 0 
0 0 0 0 0 0 0 0 0 
0 0 0 0 0 0 0 0 0 
0 0 0 0 0 0 0 0 0 
0 0 0 0 0 0 0 0 0 
0 0 0 0 0 0 0 0 0 
0 0 0 0 0 0 0 0 0 
0 0 0 0 0 0 0 0 0 
0 0 0 0 0 0 0 0 0 
0 0 0 0 0 0 0 0 0 
0 0 0 0 0 0 0 0 0 
0 0 0 0 0 0 0 0 0 
0 0 0 0 0 0 0 0 0 
0 0 0 0 0 0 0 0 0 
0 0 0 0 0 0 0 0 0 
0 0 0 0 0 0 0 0 0 
0 0 0 0 0 0 0 0 0 
0 0 0 0 0 0 0 0 0 
0 0 0 0 0 0 0 0 0 
0 0 0 0 0 0 0 0 0 
0 0 0 0 0 0 0 0 0 
0 0 0 0 0 0 0 0 0 
0 0 0 0 0 0 0 0 0 
0 0 0 0 0 0 0 0 0 
0 0 0 0 0 0 0 0 0 
0 0 0 0 0 0 0 0 0 
0 0 0 0 0 0 0 0 0 
0 0 0 0 0 0 0 0 0 
0 0 0 0 0 0 0 0 0 
0 0 0 0 0 0 0 0 0 
0 0 0 0 0 0 0 0 0 
0 0 0 0 0 0 0 0 0 
0 0 0 0 0 0 0 0 0 
0 0 0 0 0 0 0 0 0 
0 0 0 0 0 0 0 0 0 
0 0 0 0 0 0 0 0 0 
0 0 0 0 0 0 0 0 0 
0 0 0 0 0 0 0 0 0 
0 0 0 0 0 0 0 0 0 
0 0 0 0 0 0 0 0 0 
0 0 0 0 0 0 0 0 0 
0 0 0 0 0 0 0 0 0 
0 0 0 0 0 0 0 0 0 
0 0 0 0 0 0 0 0 0 
0 0 0 0 0 0 0 0 0 
0 0 0 0 0 0 0 0 0 
0 0 0 0 0 0 0 0 0 
0 0 0 0 0 0 0 0 0 
0 0 0 0 0 0 0 0 0 
0 0 0 0 0 0 0 0 0 
0 0 0 0 0 0 0 0 0 
0 0 0 0 0 0 0 0 0 
0 0 0 0 0 0 0 0 0 
0 0 0 0 0 0 0 0 0 
0 0 0 0 0 0 0 0 0 
0 0 0 0 0 0 0 0 0 
0 0 0 0 0 0 0 0 0 
0 0 0 0 0 0 0 0 0 
0 0 0 0 0 0 0 0 0 
0 0 0 0 0 0 0 0 0 
0 0 0 0 0 0 0 0 0 
0 0 0 0 0 0 0 0 0 
0 0 0 0 0 0 0 0 0 
0 0 0 0 0 0 0 0 0 
0 0 0 0 0 0 0 0 0 
0 0 0 0 0 0 0 0 0 
0 0 0 0 0 0 0 0 0 
0 0 0 0 0 0 0 0 0 
0 0 0 0 0 0 0 0 0 
0 0 0 0 0 0 0 0 0 
0 0 0 0 0 0 0 0 0 
0 0 0 0 0 0 0 0 0 
0 0 0 0 0 0 0 0 0 
0 0 0 0 0 0 0 0 0 
0 0 0 0 0 0 0 0 0 
0 0 0 0 0 0 0 0 0 
0 0 0 0 0 0 0 0 0 
0 0 0 0 0 0 0 0 0 
0 0 0 0 0 0 0 0 0 
0 0 0 0 0 0 0 0 0 
0 0 0 0 0 0 0 0 0 
0 0 0 0 0 0 0 0 0 
0 0 0 0 0 0 0 0 0 
0 0 0 0 0 0 0 0 0 
0 0 0 0 0 0 0 0 0 
0 0 0 0 0 0 0 0 0 
0 0 0 0 0 0 0 0 0 
0 0 0 0 0 0 0 0 0 
0 0 0 0 0 0 0 0 0 
0 0 0 0 0 0 0 0 0 
0 0 0 0 0 0 0 0 0 
0 0 0 0 0 0 0 0 0 
0 0 0 0 0 0 0 0 0 
0 0 0 0 0 0 0 0 0 
0 0 0 0 0 0 0 0 0 
0 0 0 0 0 0 0 0 0 
0 0 0 0 0 0 0 0 0 
0 0 0 0 0 0 0 0 0 
0 0 0 0 0 0 0 0 0 
0 0 0 0 0 0 0 0 0 
0 0 0 0 0 0 0 0 0 
0 0 0 0 0 0 0 0 0 
0 0 0 0 0 0 0 0 0 
0 0 0 0 0 0 0 0 0 
0 0 0 0 0 0 0 0 0 
0 0 0 0 0 0 0 0 0 
0 0 0 0 0 0 0 0 0 
0 0 0 0 0 0 0 0 0 
0 0 0 0 0 0 0 0 0 
0 0 0 0 0 0 0 0 0 
0 0 0 0 0 0 0 0 0 
0 0 0 0 0 0 0 0 0 
0 0 0 0 0 0 0 0 0 
0 0 0 0 0 0 0 0 0 
0 0 0 0 0 0 0 0 0 
0 0 0 0 0 0 0 0 0 
0 0 0 0 0 0 0 0 0 
0 0 0 0 0 0 0 0 0 
0 0 0 0 0 0 0 0 0 
0 0 0 0 0 0 0 0 0 
0 0 0 0 0 0 0 0 0 
0 0 0 0 0 0 0 0 0 
0 0 0 0 0 0 0 0 0 
0 0 0 0 0 0 0 0 0 
0 0 0 0 0 0 0 0 0 
0 0 0 0 0 0 0 0 0 
0 0 0 0 0 0 0 0 0 
0 0 0 0 0 0 0 0 0 
0 0 0 0 0 0 0 0 0 
0 0 0 0 0 0 0 0 0 
0 0 0 0 0 0 0 0 0 
0 0 0 0 0 0 0 0 0 
0 0 0 0 0 0 0 0 0 
0 0 0 0 0 0 0 0 0 
0 0 0 0 0 0 0 0 0 
0 0 0 0 0 0 0 0 0 
0 0 0 0 0 0 0 0 0 
0 0 0 0 0 0 0 0 0 
0 0 0 0 0 0 0 0 0 
0 0 0 0 0 0 0 0 0 
0 0 0 0 0 0 0 0 0 
0 0 0 0 0 0 0 0 0 
0 0 0 0 0 0 0 0 0 
0 0 0 0 0 0 0 0 0 
0 0 0 0 0 0 0 0 0 
0 0 0 0 0 0 0 0 0 
0 0 0 0 0 0 0 0 0 
0 0 0 0 0 0 0 0 0 
0 0 0 0 0 0 0 0 0 
0 0 0 0 0 0 0 0 0 
0 0 0 0 0 0 0 0 0 
0 0 0 0 0 0 0 0 0 
0 0 0 0 0 0 0 0 0 
0 0 0 0 0 0 0 0 0 
0 0 0 0 0 0 0 0 0 
0 0 0 0 0 0 0 0 0 
0 0 0 0 0 0 0 0 0 
0 0 0 0 0 0 0 0 0 
0 0 0 0 0 0 0 0 0 
0 0 0 0 0 0 0 0 0 
0 0 0 0 0 0 0 0 0 
0 0 0 0 0 0 0 0 0 
0 0 0 0 0 0 0 0 0 
0 0 0 0 0 0 0 0 0 
0 0 0 0 0 0 0 0 0 
0 0 0 0 0 0 0 0 0 
0 0 0 0 0 0 0 0 0 
0 0 0 0 0 0 0 0 0 
0 0 0 0 0 0 0 0 0 
0 0 0 0 0 0 0 0 0 
0 0 0 0 0 0 0 0 0 
0 0 0 0 0 0 0 0 0 
0 0 0 0 0 0 0 0 0 
0 0 0 0 0 0 0 0 0 
0 0 0 0 0 0 0 0 0 
0 0 0 0 0 0 0 0 0 
0 0 0 0 0 0 0 0 0 
0 0 0 0 0 0 0 0 0 
0 0 0 0 0 0 0 0 0 
0 0 0 0 0 0 0 0 0 
0 0 0 0 0 0 0 0 0 
0 0 0 0 0 0 0 0 0 
0 0 0 0 0 0 0 0 0 
0 0 0 0 0 0 0 0 0 
0 0 0 0 0 0 0 0 0 
0 0 0 0 0 0 0 0 0 
0 0 0 0 0 0 0 0 0 
0 0 0 0 0 0 0 0 0 
0 0 0 0 0 0 0 0 0 
0 0 0 0 0 0 0 0 0 
0 0 0 0 0 0 0 0 0 
0 0 0 0 0 0 0 0 0 
0 0 0 0 0 0 0 0 0 
0 0 0 0 0 0 0 0 0 
0 0 0 0 0 0 0 0 0 
0 0 0 0 0 0 0 0 0 
0 0 0 0 0 0 0 0 0 
0 0 0 0 0 0 0 0 0 
0 0 0 0 0 0 0 0 0 
0 0 0 0 0 0 0 0 0 
0 0 0 0 0 0 0 0 0 
0 0 0 0 0 0 0 0 0 
0 0 0 0 0 0 0 0 0 
0 0 0 0 0 0 0 0 0 
0 0 0 0 0 0 0 0 0 
0 0 0 0 0 0 0 0 0 
0 0 0 0 0 0 0 0 0 
0 0 0 0 0 0 0 0 0 
0 0 0 0 0 0 0 0 0 
0 0 0 0 0 0 0 0 0 
0 0 0 0 0 0 0 0 0 
0 0 0 0 0 0 0 0 0 
0 0 0 0 0 0 0 0 0 
0 0 0 0 0 0 0 0 0 
0 0 0 0 0 0 0 0 0 
0 0 0 0 0 0 0 0 0 
0 0 0 0 0 0 0 0 0 
0 0 0 0 0 0 0 0 0 
0 0 0 0 0 0 0 0 0 
0 0 0 0 0 0 0 0 0 
0 0 0 0 0 0 0 0 0 
0 0 0 0 0 0 0 0 0 
0 0 0 0 0 0 0 0 0 
0 0 0 0 0 0 0 0 0 
0 0 0 0 0 0 0 0 0 
0 0 0 0 0 0 0 0 0 
0 0 0 0 0 0 0 0 0 
0 0 0 0 0 0 0 0 0 
0 0 0 0 0 0 0 0 0 
0 0 0 0 0 0 0 0 0 
0 0 0 0 0 0 0 0 0 
0 0 0 0 0 0 0 0 0 
0 0 0 0 0 0 0 0 0 
0 0 0 0 0 0 0 0 0 
0 0 0 0 0 0 0 0 0 
0 0 0 0 0 0 0 0 0 
0 0 0 0 0 0 0 0 0 
0 0 0 0 0 0 0 0 0 
0 0 0 0 0 0 0 0 0 
0 0 0 0 0 0 0 0 0 
0 0 0 0 0 0 0 0 0 
0 0 0 0 0 0 0 0 0 
0 0 0 0 0 0 0 0 0 
0 0 0 0 0 0 0 0 0 
0 0 0 0 0 0 0 0 0 
0 0 0 0 0 0 0 0 0 
0 0 0 0 0 0 0 0 0 
0 0 0 0 0 0 0 0 0 
0 0 0 0 0 0 0 0 0 
0 0 0 0 0 0 0 0 0 
0 0 0 0 0 0 0 0 0 
0 0 0 0 0 0 0 0 0 
0 0 0 0 0 0 0 0 0 
0 0 0 0 0 0 0 0 0 
0 0 0 0 0 0 0 0 0 
0 0 0 0 0 0 0 0 0 
0 0 0 0 0 0 0 0 0 
0 0 0 0 0 0 0 0 0 
0 0 0 0 0 0 0 0 0 
0 0 0 0 0 0 0 0 0 
0 0 0 0 0 0 0 0 0 
0 0 0 0 0 0 0 0 0 
0 0 0 0 0 0 0 0 0 
0 0 0 0 0 0 0 0 0 
0 0 0 0 0 0 0 0 0 
0 0 0 0 0 0 0 0 0 
0 0 0 0 0 0 0 0 0 
0 0 0 0 0 0 0 0 0 
0 0 0 0 0 0 0 0 0 
0 0 0 0 0 0 0 0 0 
0 0 0 0 0 0 0 0 0 
0 0 0 0 0 0 0 0 0 
0 0 0 0 0 0 0 0 0 
0 0 0 0 0 0 0 0 0 
0 0 0 0 0 0 0 0 0 
0 0 0 0 0 0 0 0 0 
0 0 0 0 0 0 0 0 0 
0 0 0 0 0 0 0 0 0 
0 0 0 0 0 0 0 0 0 
0 0 0 0 0 0 0 0 0 
0 0 0 0 0 0 0 0 0 
0 0 0 0 0 0 0 0 0 
0 0 0 0 0 0 0 0 0 
0 0 0 0 0 0 0 0 0 
0 0 0 0 0 0 0 0 0 
0 0 0 0 0 0 0 0 0 
0 0 0 0 0 0 0 0 0 
0 0 0 0 0 0 0 0 0 
0 0 0 0 0 0 0 0 0 
0 0 0 0 0 0 0 0 0 
0 0 0 0 0 0 0 0 0 
0 0 0 0 0 0 0 0 0 
0 0 0 0 0 0 0 0 0 
0 0 0 0 0 0 0 0 0 
0 0 0 0 0 0 0 0 0 
0 0 0 0 0 0 0 0 0 
0 0 0 0 0 0 0 0 0 
0 0 0 0 0 0 0 0 0 
0 0 0 0 0 0 0 0 0 
0 0 0 0 0 0 0 0 0 
0 0 0 0 0 0 0 0 0 
0 0 0 0 0 0 0 0 0 
0 0 0 0 0 0 0 0 0 
0 0 0 0 0 0 0 0 0 
0 0 0 0 0 0 0 0 0 
0 0 0 0 0 0 0 0 0 
0 0 0 0 0 0 0 0 0 
0 0 0 0 0 0 0 0 0 
0 0 0 0 0 0 0 0 0 
0 0 0 0 0 0 0 0 0 
0 0 0 0 0 0 0 0 0 
0 0 0 0 0 0 0 0 0 
0 0 0 0 0 0 0 0 0 
0 0 0 0 0 0 0 0 0 
0 0 0 0 0 0 0 0 0 
0 0 0 0 0 0 0 0 0 

v 3 1500 double
-0.470767 -1.13862 2.04027e-15 -0.157743 -0.71324 9.05139e-15 -0.945903 -0.5536 -5.37945e-15 
-0.656209 -0.340464 -5.79408e-15 0.171718 -0.824513 -5.37944e-15 -0.493614 -0.531613 -0.0291791 
-0.185284 -0.727499 -1.36799e-07 0.185319 -0.0744708 -1.77154e-15 0.138617 -0.858987 0.154134 
0.131176 -0.14229 -2.30128e-12 -0.0862098 -0.281325 5.44351e-15 -0.898833 -0.360109 -1.311e-06 
-0.179508 -0.0892691 1.83708e-15 0.00663985 -0.221897 1.77978e-07 -0.723472 0.0263774 -8.98514e-15 
-0.143318 -0.179903 1.07248e-10 -0.247035 -0.169364 9.05139e-15 0.0418274 -0.0284145 2.68368e-05 
-0.267817 -0.265858 0.00157727 -0.00944605 0.106846 0.0712707 -0.273673 -0.240012 -5.38426e-15 