# vtk DataFile Version 4.0
Generated by LIGGGHTS
ASCII
DATASET POLYDATA
POINTS 1087 float
-0.000378312 -0.0661912 0.00149966 -0.150479 -0.331261 0.00149966 -0.011405 -0.331549 0.00149966 
-0.120615 -0.321475 0.00149966 -0.140372 -0.321206 0.00149966 -0.264553 -0.315788 0.00149966 
-0.291177 -0.313424 0.00149966 -0.0707445 -0.314115 0.00149966 -0.0383935 -0.315537 0.00149966 
-0.0354919 -0.316351 0.00149966 -0.31207 -0.30789 0.00149966 -0.0858895 -0.307688 0.00149966 
-0.0537321 -0.309881 0.00149966 -0.0733105 -0.304095 0.00149966 -0.0034742 -0.304936 0.00149966 
-0.262438 -0.298374 0.00149966 -0.253497 -0.294988 0.00149966 -0.0705674 -0.29627 0.00149966 
-0.0205705 -0.29685 0.00149966 -0.00703821 -0.295146 0.00149966 -0.0371197 -0.293912 0.00149966 
-0.0435511 -0.291536 0.00149966 -0.241674 -0.285831 0.00149966 -0.0201715 -0.282667 0.00149966 
-0.256166 -0.278155 0.00149966 -0.0781508 -0.27694 0.00149966 -0.16399 -0.267688 0.00149966 
-0.114881 -0.256806 0.00149966 -0.0716396 -0.25435 0.00149966 -0.0215485 -0.257641 0.00149966 
-0.287822 -0.252721 0.00149966 -0.0108895 -0.25092 0.00149966 -0.130509 -0.240545 0.00149966 
-0.105856 -0.239438 0.00149966 -0.0738189 -0.237926 0.00149966 -0.243135 -0.227138 0.00149966 
-0.316954 -0.22297 0.00149966 -0.313921 -0.220808 0.00149966 -0.222385 -0.221398 0.00149966 
-0.133492 -0.22055 0.00149966 -0.135591 -0.211557 0.00149966 -0.275028 -0.20775 0.00149966 
-0.251729 -0.210573 0.00149966 -0.150171 -0.203867 0.00149966 -0.266203 -0.199487 0.00149966 
-0.158657 -0.199848 0.00149966 -0.0439926 -0.199264 0.00149966 -0.0563301 -0.191559 0.00149966 
-0.191734 -0.188066 0.00149966 -0.25811 -0.182095 0.00149966 -0.24569 -0.184351 0.00149966 
-0.0768993 -0.184196 0.00149966 -0.18361 -0.177974 0.00149966 -0.0811726 -0.176691 0.00149966 
-0.0200636 -0.177964 0.00149966 -0.315031 -0.172637 0.00149966 -0.0963455 -0.174305 0.00149966 
-0.193559 -0.166041 0.00149966 -0.113293 -0.166952 0.00149966 -0.0216236 -0.16705 0.00155059 
-0.189694 -0.163117 0.00149966 -0.0160209 -0.155196 0.00149966 -0.328111 -0.153433 0.00149966 
-0.226774 -0.154682 0.00149966 -0.0646665 -0.15689 0.00149966 -0.0827843 -0.153322 0.00149966 
-0.209455 -0.143171 0.00149966 -0.0932627 -0.139311 0.00149966 -0.0556321 -0.13543 0.00149966 
-0.33555 -0.133316 0.00149966 -0.328641 -0.131605 0.00149966 -0.213523 -0.134795 0.00149966 
-0.00533149 -0.133794 0.00149966 -0.0707046 -0.129252 0.00149966 -0.00541964 -0.129643 0.00149966 
-0.106911 -0.127582 0.00149966 -0.141147 -0.121975 0.00151464 -0.139343 -0.124802 0.00156058 
-0.112714 -0.123701 0.00149966 -0.0964152 -0.124391 0.00149966 -0.000401194 -0.126367 0.00149966 
-0.102395 -0.121754 0.00150009 -0.0993684 -0.122078 0.00150424 -0.152796 -0.118484 0.00149966 
-0.00318195 -0.116268 0.00149966 -0.146339 -0.113701 0.00149966 -0.104035 -0.11558 0.00149966 
-0.0666405 -0.114096 0.00149966 -0.0539355 -0.11413 0.00149966 -0.116057 -0.110552 0.00149966 
-0.0612235 -0.110871 0.00149966 -0.0359314 -0.110347 0.00149966 -0.258555 -0.109567 0.00149966 
-0.0643095 -0.108705 0.00149966 -0.0027055 -0.109388 0.00149966 -0.0628517 -0.106052 0.00149966 
-0.193057 -0.102166 0.00149966 -0.1596 -0.103255 0.00149966 -0.14847 -0.10016 0.00149966 
-0.306953 -0.0967406 0.00149966 -0.143818 -0.0958731 0.00149966 -0.139226 -0.0979539 0.00149966 
-0.0285921 -0.0945727 0.00149966 -0.323246 -0.0930712 0.00149966 -0.240505 -0.0918433 0.00149966 
-0.162633 -0.0909421 0.00149966 -0.0366975 -0.0878535 0.00149966 -0.0209658 -0.0886229 0.00149966 
-0.142233 -0.0880885 0.00149966 -0.0914027 -0.0889441 0.00149966 -0.0311141 -0.0867158 0.00149966 
-0.0274852 -0.088848 0.00149966 -0.00714062 -0.0860757 0.00149966 -0.318563 -0.0837753 0.00149966 
-0.0743676 -0.0819565 0.00149966 -0.0489134 -0.0840126 0.00149966 -0.0408076 -0.0845051 0.00149966 
-0.0249526 -0.0845212 0.00149966 -0.335985 -0.0798248 0.00149966 -0.0531453 -0.0767505 0.00149966 
-0.00498801 -0.0787633 0.00149966 -0.00120947 -0.0770719 0.00149966 -0.187718 -0.0767693 0.00149966 
-0.144806 -0.0717402 0.00149966 -0.134924 -0.073543 0.00149966 -0.0854506 -0.0722829 0.00149966 
-0.0176931 -0.0730285 0.00149966 -0.0116782 -0.0723502 0.00149966 -0.170499 -0.0684264 0.00149966 
-0.0347261 -0.0690838 0.00149966 -0.163486 -0.0658099 0.00149966 -0.0198883 -0.0633021 0.00149967 
-0.0680228 -0.0596033 0.00149966 -0.0277099 -0.0584061 0.00149966 -0.0147356 -0.0595406 0.00149966 
-0.0396432 -0.0582124 0.00149966 -0.0214649 -0.0566973 0.00149966 -0.01274 -0.0570235 0.00149966 
-0.0496594 -0.0527139 0.0015004 -0.0286641 -0.0540849 0.00149966 -0.00368025 -0.0539438 0.00149966 
-0.0220394 -0.0507586 0.00149966 -0.0145386 -0.0509704 0.00149966 -0.330071 -0.046771 0.00149966 
-0.201003 -0.0478091 0.00149966 -0.178264 -0.0457493 0.00149966 -0.138713 -0.0482685 0.00149966 
-0.126252 -0.0460924 0.00149966 -0.0362605 -0.0464016 0.00149966 -0.280711 -0.045777 0.00149966 
-0.277328 -0.0444194 0.00149966 -0.0677546 -0.0433966 0.00149966 -0.015618 -0.0437989 0.00149966 
-0.160521 -0.0421284 0.00149966 -0.0665442 -0.0395221 0.00149966 -0.0362755 -0.0432909 0.00149966 
-0.0111059 -0.0411308 0.00149966 -0.00255405 -0.0397828 0.00149966 -0.177414 -0.0381346 0.00149966 
-0.113297 -0.0372621 0.00149966 -0.0385963 -0.0373532 0.00149966 -0.00947304 -0.0372552 0.00149966 
-0.337319 -0.0360631 0.00149966 -0.125129 -0.0366949 0.00149966 -0.00792201 -0.0342223 0.00149966 
-0.167385 -0.0330215 0.00149966 -0.0633225 -0.031167 0.00149966 -0.0350461 -0.0329679 0.00149966 
-0.0316283 -0.0326258 0.00149966 -0.291136 -0.0282252 0.00149966 -0.214584 -0.0282895 0.00149966 
-0.0874776 -0.0294408 0.00149966 -0.0587941 -0.0306575 0.00149966 -0.232095 -0.0262379 0.00149966 
-0.228749 -0.026851 0.00149966 -0.154301 -0.0267878 0.00149966 -0.0908514 -0.026653 0.00149966 
-0.0446151 -0.0256703 0.00149966 -0.0294728 -0.0253583 0.00149966 -0.159317 -0.0234303 0.00149966 
-0.114812 -0.0252712 0.00149966 -0.103305 -0.0220901 0.00149966 -0.0544052 -0.0227434 0.00149966 
-0.0805611 -0.0198939 0.00149966 -0.00583008 -0.016806 0.00149966 -0.0011006 -0.0170546 0.00149966 
-0.194979 -0.0132573 0.00149966 -0.0993125 -0.01223 0.00149966 -0.0512362 -0.0133222 0.00149966 
-0.00919007 -0.0120763 0.00149966 -0.175481 -0.0111917 0.00149966 -0.0406123 -0.0101571 0.00149966 
-0.0124062 -0.00965839 0.00149966 -0.0976586 -0.00817439 0.00149966 -0.0648098 -0.00927272 0.00149966 
-0.0350799 -0.00620424 0.00149966 -0.00561835 -0.00854137 0.00149966 -0.240147 -0.00344686 0.00149966 
-0.177047 -0.00492891 0.00149966 -0.00646427 -0.00541273 0.00149966 -0.142416 -0.0011352 0.00149966 
-0.0948934 -0.00224509 0.00149966 -0.0637971 -0.00108372 0.00149966 -0.0582878 -0.0020256 0.00149966 
-0.0393009 -0.00212319 0.00149966 -0.0301458 -0.000995573 0.00149966 -0.0263755 -0.00112783 0.00149966 
-0.149947 -0.238013 0.00176633 -0.250928 -0.206457 0.00153336 -0.230271 -0.14935 0.00182661 
-0.0125098 -0.140138 0.00151978 -0.0368601 -0.123371 0.00149925 -0.0680737 -0.122092 0.00149974 
-0.125921 -0.10662 0.00150425 -0.0539639 -0.0943649 0.00223053 -0.052829 -0.0865287 0.00162867 
-0.0509716 -0.0794334 0.00299229 -0.0157184 -0.0787242 0.00193423 -0.0748327 -0.0775363 0.00202934 
-0.059581 -0.078365 0.00242919 -0.327113 -0.0703078 0.0014963 -0.0168169 -0.0687255 0.0015448 
-0.0369944 -0.0655106 0.00216014 -0.058208 -0.0584249 0.00191676 -0.0561542 -0.0552362 0.00149393 
-0.0527661 -0.0526255 0.00170482 -0.0840036 -0.0483182 0.0022634 -0.0882755 -0.0466527 0.00258843 
-0.0518866 -0.0470023 0.00167213 -0.0393733 -0.047991 0.00150217 -0.0870493 -0.0371325 0.00176215 
-0.0430814 -0.0379927 0.00152942 -0.0326714 -0.036871 0.00253789 -0.0710558 -0.0343718 0.00183087 
-0.0666794 -0.0358383 0.00149846 -0.0720076 -0.0310205 0.0026923 -0.0264641 -0.0311977 0.00151225 
-0.0950038 -0.0287171 0.0031898 -0.0556035 -0.0280068 0.00177886 -0.0932184 -0.0242885 0.00149999 
-0.0504029 -0.0212287 0.00308071 -0.0291935 -0.0214652 0.00192281 -0.0256514 -0.02288 0.0029176 
-0.111846 -0.016134 0.00214046 -0.107112 -0.0142226 0.0015351 -0.065182 -0.0140542 0.00243139 
-0.0725359 -0.0110351 0.0015641 -0.0314519 -0.0115455 0.00203695 -0.155012 -0.00534895 0.00151904 
-0.061693 -0.00704429 0.00182404 -0.0734448 -0.000410645 0.00152156 -0.0464498 -0.0810951 0.00292461 
-0.0654566 -0.0294551 0.0037715 -0.0469991 -0.014104 0.00334042 -0.0332489 -0.0140985 0.00318908 
-0.0708457 -0.00294179 0.00337413 -0.0247513 -0.0959061 0.00765315 -0.0608052 -0.0527573 0.0070239 
-0.0926421 -0.0360238 0.00781332 -0.257717 0.00043366 0.00149966 -0.254321 0.00148775 0.00149966 
-0.129699 0.00105994 0.00149966 -0.0973499 0.00266751 0.00149966 -0.038514 0.00308621 0.00149966 
-0.0228723 0.00265496 0.00149966 -0.242019 0.00457018 0.00149966 -0.23707 0.0047063 0.00149966 
-0.181902 0.00372365 0.00149966 -0.117184 0.00516753 0.00149966 -0.0765394 0.0030755 0.00276639 
-0.252432 0.00758748 0.00149966 -0.197603 0.00640901 0.00149966 -0.166547 0.00824977 0.00149966 
-0.136472 0.00735552 0.00149966 -0.129118 0.0086937 0.00149966 -0.0822957 0.00687413 0.00149966 
-0.0669688 0.00836583 0.00149966 -0.0056006 0.0707887 0.00796397 -0.158151 0.0102984 0.00149966 
-0.140904 0.0101793 0.00149966 -0.0331494 0.0121037 0.00149966 -0.155386 0.0133605 0.00149966 
-0.143764 0.0130613 0.00149966 -0.0891309 0.0135832 0.00149966 -0.0833681 0.0143484 0.00149966 
-0.0376027 0.014401 0.00149966 -0.241113 0.0168312 0.00149966 -0.139998 0.015552 0.00149966 
-0.12608 0.0161122 0.00149966 -0.0520155 0.0171081 0.00149966 -0.0430243 0.0158428 0.00149966 
-0.0110492 0.015313 0.00149966 -0.233792 0.0215493 0.00149966 -0.0798819 0.0208409 0.00149966 
-0.0516665 0.0213617 0.00149966 -0.0359858 0.0186319 0.00149916 -0.0643516 0.0251686 0.00149966 
-0.0521541 0.0258263 0.00149966 -0.0262946 0.0229812 0.00149966 -0.0351089 0.0243116 0.00149966 
-0.238899 0.0302981 0.00149966 -0.0312658 0.0272752 0.00149966 -0.0235606 0.0292019 0.00149966 
-0.0159182 0.0292994 0.00149966 -0.0290072 0.0306167 0.00149966 -0.247767 0.0345659 0.00149966 
[...]
POINT_DATA 1087
FIELD FieldData 7
id 1 1087 int
1144 782 1210 478 1108 405 483 835 1100 
1002 936 24 374 463 81 1300 673 30 
1266 1000 1109 788 397 704 1051 4 838 
1196 589 160 1085 117 1211 1125 1452 1431 
980 1383 178 391 10 469 884 692 937 
337 152 84 759 442 1497 932 490 314 
229 1376 927 15 356 638 25 831 633 
1057 182 1200 1055 903 319 452 171 506 
1430 726 839 421 1065 465 177 1439 1062 
772 628 676 1127 39 305 630 912 1182 
754 1136 774 373 147 371 1045 466 901 
1224 159 464 1070 366 58 456 786 167 
327 647 612 997 756 1014 1068 852 151 
561 1393 804 64 401 511 1209 388 1281 
328 1336 1052 344 479 9 16 27 34 
938 1164 751 1130 1145 28 1107 853 1119 
925 487 627 1005 677 1269 1223 7 101 
1401 1121 1231 1394 1323 11 384 586 1428 
431 23 1012 998 1257 1483 434 1261 1377 
31 315 808 1235 664 767 701 732 700 
76 36 306 590 360 61 1242 778 21 
336 499 1273 541 1392 376 958 1405 1213 
495 199 1276 829 907 77 75 801 845 
1120 1039 317 1116 467 1278 1357 1082 480 
1071 916 1361 771 382 173 1208 787 477 
764 458 915 1158 607 629 1079 1086 603 
303 931 935 602 639 1226 766 313 1075 
1204 205 781 175 769 362 604 763 1354 
1371 1373 1078 1380 1352 1353 1227 1053 1122 
1238 939 626 427 963 93 1202 809 1089 
481 1253 1094 973 1010 1362 20 1421 1114 
215 526 522 185 1069 1332 697 165 641 
1241 1378 107 1279 660 47 96 583 947 
651 1485 55 822 50 1389 959 217 1422 
214 955 302 904 172 1168 671 578 216 
67 790 142 1256 1099 1288 805 972 1205 
652 471 1370 393 524 203 372 350 605 
791 1189 454 40 1396 825 940 1419 1186 
1287 714 552 611 345 1364 1112 1339 282 
1228 1017 498 191 1023 80 342 59 753 
625 709 1076 353 556 89 222 1402 1040 
600 565 800 842 273 1229 295 819 46 
207 1415 1250 1345 208 301 654 765 867 
563 968 115 66 494 358 795 53 1187 
1471 870 1248 1379 1457 320 279 1399 1225 
943 347 1409 945 1406 138 1255 56 521 
770 773 581 799 510 662 451 2 562 
432 1252 122 141 535 721 195 811 1308 
865 1124 515 933 970 712 1254 492 145 
71 646 731 610 1416 911 815 365 45 
883 1183 1 738 35 569 1398 533 1155 
649 1104 62 946 580 1251 1297 1106 209 
402 691 644 926 1013 220 566 32 1340 
820 17 278 429 1154 818 966 135 1111 
180 192 1123 1272 887 63 826 606 657 
204 956 944 57 341 54 504 1217 794 
348 60 507 343 518 672 957 807 816 
1468 1077 51 369 668 74 908 951 340 
948 501 796 1090 1369 930 880 961 1262 
1395 1118 1243 1156 1295 482 227 1458 1135 
703 1175 530 1351 286 1437 1147 1134 873 
789 1284 1091 757 841 289 725 98 8 
554 1234 768 532 194 1245 1009 834 1146 
329 924 964 321 784 1313 1432 1282 1215 
488 656 675 559 823 632 1219 896 85 
357 455 993 710 728 392 780 994 29 
979 631 1372 779 717 261 3 383 231 
146 869 254 1157 1363 678 1188 1115 5 
381 598 359 1289 1180 241 837 1290 576 
484 246 509 540 1404 105 695 1201 387 
1307 473 1149 1330 1133 474 621 367 457 
354 363 310 681 12 41 560 441 485 
1321 636 247 577 828 1191 267 86 26 
976 527 1384 1237 166 1344 1061 832 1141 
1016 1206 1429 459 1011 325 99 108 18 
693 1035 1438 412 424 1388 1293 258 1413 
1301 170 239 1271 1162 906 260 545 1172 
775 549 104 1285 783 1462 87 558 1341 
846 689 268 233 685 1312 573 1304 311 
1477 395 985 1356 1083 1484 802 97 407 
1327 443 609 144 619 460 593 22 82 
1179 785 385 94 1496 917 1054 255 390 
719 1478 433 420 987 1355 1222 1426 1460 
860 1036 232 572 1324 1465 833 529 250 
1420 188 1425 1192 493 640 661 120 538 
1066 264 95 238 544 696 1163 1286 1434 
103 551 982 1233 378 1294 848 705 409 
553 406 992 694 986 531 981 1138 111 
858 830 851 827 707 844 682 262 410 
1151 400 1444 248 557 859 855 398 236 
1292 1467 389 1493 1306 1132 1368 1490 399 
1427 1283 201 984 91 1386 335 679 118 
1447 1314 1350 742 539 729 1167 346 124 
1193 322 850 143 1142 1092 983 287 1326 
740 83 882 587 1338 224 1476 821 476 
596 667 1026 284 744 1024 686 298 1349 
413 65 722 699 1443 720 1482 414 601 
683 1446 181 1436 941 1337 411 1031 1047 
128 1043 331 505 739 1220 813 43 949 
723 449 418 1004 750 996 164 716 1459 
516 1479 404 200 133 989 659 1095 1453 
14 658 1166 546 878 150 1139 285 635 
125 624 1274 1105 663 176 69 876 1346 
1195 211 1489 881 1366 338 1137 276 1178 
244 439 422 1101 517 861 293 183 1029 
1407 1064 898 840 1003 1445 1317 570 745 
542 680 1181 1442 226 988 1165 1110 242 
1171 100 568 44 824 1048 445 872 585 
891 548 1475 218 892 1342 148 1265 895 
127 942 1348 1335 134 798 525 1488 1173 
735 1170 1197 447 536 1018 1450 1032 1174 
1038 210 19 140 1296 1418 136 503 68 
417 967 1102 1244 1042 123 1113 251 1423 
1190 730 645 1347 537 129 1129 131 290 
864 741 508 139 1494 1486 1334 119 886 
137 1093 1034 1015 743 893 1022 894 733 
296 592 292 1343 426 297 734 877 1499 
737 419 1316 885 874 579 130 899 450 
1033 438 78 1050 594 1322 1041 724 437 
193 1470 423 1298 497 793 666 1328 1333 
440 1469 1481 1473 1021 1480 491 
type 1 1087 int
1 1 1 1 1 1 1 1 1 
1 1 1 1 1 1 1 1 1 
1 1 1 1 1 1 1 1 1 
1 1 1 1 1 1 1 1 1 
1 1 1 1 1 1 1 1 1 
1 1 1 1 1 1 1 1 1 
1 1 1 1 1 1 1 1 1 
1 1 1 1 1 1 1 1 1 
1 1 1 1 1 1 1 1 1 
1 1 1 1 1 1 1 1 1 
1 1 1 1 1 1 1 1 1 
1 1 1 1 1 1 1 1 1 
1 1 1 1 1 1 1 1 1 
1 1 1 1 1 1 1 1 1 
1 1 1 1 1 1 1 1 1 
1 1 1 1 1 1 1 1 1 
1 1 1 1 1 1 1 1 1 
1 1 1 1 1 1 1 1 1 
1 1 1 1 1 1 1 1 1 
1 1 1 1 1 1 1 1 1 
1 1 1 1 1 1 1 1 1 
1 1 1 1 1 1 1 1 1 
1 1 1 1 1 1 1 1 1 
1 1 1 1 1 1 1 1 1 
1 1 1 1 1 1 1 1 1 
1 1 1 1 1 1 1 1 1 
1 1 1 1 1 1 1 1 1 
1 1 1 1 1 1 1 1 1 
1 1 1 1 1 1 1 1 1 
1 1 1 1 1 1 1 1 1 
1 1 1 1 1 1 1 1 1 
1 1 1 1 1 1 1 1 1 
1 1 1 1 1 1 1 1 1 
1 1 1 1 1 1 1 1 1 
1 1 1 1 1 1 1 1 1 
1 1 1 1 1 1 1 1 1 
1 1 1 1 1 1 1 1 1 
1 1 1 1 1 1 1 1 1 
1 1 1 1 1 1 1 1 1 
1 1 1 1 1 1 1 1 1 
1 1 1 1 1 1 1 1 1 
1 1 1 1 1 1 1 1 1 
1 1 1 1 1 1 1 1 1 
1 1 1 1 1 1 1 1 1 
1 1 1 1 1 1 1 1 1 
1 1 1 1 1 1 1 1 1 
1 1 1 1 1 1 1 1 1 
1 1 1 1 1 1 1 1 1 
1 1 1 1 1 1 1 1 1 
1 1 1 1 1 1 1 1 1 
1 1 1 1 1 1 1 1 1 
1 1 1 1 1 1 1 1 1 
1 1 1 1 1 1 1 1 1 
1 1 1 1 1 1 1 1 1 
1 1 1 1 1 1 1 1 1 
1 1 1 1 1 1 1 1 1 
1 1 1 1 1 1 1 1 1 
1 1 1 1 1 1 1 1 1 
1 1 1 1 1 1 1 1 1 
1 1 1 1 1 1 1 1 1 
1 1 1 1 1 1 1 1 1 
1 1 1 1 1 1 1 1 1 
1 1 1 1 1 1 1 1 1 
1 1 1 1 1 1 1 1 1 
1 1 1 1 1 1 1 1 1 
1 1 1 1 1 1 1 1 1 
1 1 1 1 1 1 1 1 1 
1 1 1 1 1 1 1 1 1 
1 1 1 1 1 1 1 1 1 
1 1 1 1 1 1 1 1 1 
1 1 1 1 1 1 1 1 1 
1 1 1 1 1 1 1 1 1 
1 1 1 1 1 1 1 1 1 
1 1 1 1 1 1 1 1 1 
1 1 1 1 1 1 1 1 1 
1 1 1 1 1 1 1 1 1 
1 1 1 1 1 1 1 1 1 
1 1 1 1 1 1 1 1 1 
1 1 1 1 1 1 1 1 1 
1 1 1 1 1 1 1 1 1 
1 1 1 1 1 1 1 1 1 
1 1 1 1 1 1 1 1 1 
1 1 1 1 1 1 1 1 1 
1 1 1 1 1 1 1 1 1 
1 1 1 1 1 1 1 1 1 
1 1 1 1 1 1 1 1 1 
1 1 1 1 1 1 1 1 1 
1 1 1 1 1 1 1 1 1 
1 1 1 1 1 1 1 1 1 
1 1 1 1 1 1 1 1 1 
1 1 1 1 1 1 1 1 1 
1 1 1 1 1 1 1 1 1 
1 1 1 1 1 1 1 1 1 
1 1 1 1 1 1 1 1 1 
1 1 1 1 1 1 1 1 1 
1 1 1 1 1 1 1 1 1 
1 1 1 1 1 1 1 1 1 
1 1 1 1 1 1 1 1 1 
1 1 1 1 1 1 1 1 1 
1 1 1 1 1 1 1 1 1 
1 1 1 1 1 1 1 1 1 
1 1 1 1 1 1 1 1 1 
1 1 1 1 1 1 1 1 1 
1 1 1 1 1 1 1 1 1 
1 1 1 1 1 1 1 1 1 
1 1 1 1 1 1 1 1 1 
1 1 1 1 1 1 1 1 1 
1 1 1 1 1 1 1 1 1 
1 1 1 1 1 1 1 1 1 
1 1 1 1 1 1 1 1 1 
1 1 1 1 1 1 1 1 1 
1 1 1 1 1 1 1 1 1 
1 1 1 1 1 1 1 1 1 
1 1 1 1 1 1 1 1 1 
1 1 1 1 1 1 1 1 1 
1 1 1 1 1 1 1 1 1 
1 1 1 1 1 1 1 1 1 
1 1 1 1 1 1 1 1 1 
1 1 1 1 1 1 1 1 1 
1 1 1 1 1 1 1 1 1 
1 1 1 1 1 1 1 
i 3 1087 int
0 0 0 0 0 0 0 0 0 
0 0 0 0 0 0 0 0 0 
0 0 0 0 0 0 0 0 0 
0 0 0 0 0 0 0 0 0 
0 0 0 0 0 0 0 0 0 
0 0 0 0 0 0 0 0 0 
0 0 0 0 0 0 0 0 0 
0 0 0 0 0 0 0 0 0 
0 0 0 0 0 0 0 0 0 
0 0 0 0 0 0 0 0 0 
0 0 0 0 0 0 0 0 0 
0 0 0 0 0 0 0 0 0 
0 0 0 0 0 0 0 0 0 
0 0 0 0 0 0 0 0 0 
0 0 0 0 0 0 0 0 0 
0 0 0 0 0 0 0 0 0 
0 0 0 0 0 0 0 0 0 
0 0 0 0 0 0 0 0 0 
0 0 0 0 0 0 0 0 0 
0 0 0 0 0 0 0 0 0 
0 0 0 0 0 0 0 0 0 
0 0 0 0 0 0 0 0 0 
0 0 0 0 0 0 0 0 0 
0 0 0 0 0 0 0 0 0 
0 0 0 0 0 0 0 0 0 
0 0 0 0 0 0 0 0 0 
0 0 0 0 0 0 0 0 0 
0 0 0 0 0 0 0 0 0 
0 0 0 0 0 0 0 0 0 
0 0 0 0 0 0 0 0 0 
0 0 0 0 0 0 0 0 0 
0 0 0 0 0 0 0 0 0 
0 0 0 0 0 0 0 0 0 
0 0 0 0 0 0 0 0 0 
0 0 0 0 0 0 0 0 0 
0 0 0 0 0 0 0 0 0 
0 0 0 0 0 0 0 0 0 
0 0 0 0 0 0 0 0 0 
0 0 0 0 0 0 0 0 0 
0 0 0 0 0 0 0 0 0 
0 0 0 0 0 0 0 0 0 
0 0 0 0 0 0 0 0 0 
0 0 0 0 0 0 0 0 0 
0 0 0 0 0 0 0 0 0 
0 0 0 0 0 0 0 0 0 
0 0 0 0 0 0 0 0 0 
0 0 0 0 0 0 0 0 0 
0 0 0 0 0 0 0 0 0 
0 0 0 0 0 0 0 0 0 
0 0 0 0 0 0 0 0 0 
0 0 0 0 0 0 0 0 0 
0 0 0 0 0 0 0 0 0 
0 0 0 0 0 0 0 0 0 
0 0 0 0 0 0 0 0 0 
0 0 0 0 0 0 0 0 0 
0 0 0 0 0 0 0 0 0 
0 0 0 0 0 0 0 0 0 
0 0 0 0 0 0 0 0 0 
0 0 0 0 0 0 0 0 0 
0 0 0 0 0 0 0 0 0 
0 0 0 0 0 0 0 0 0 
0 0 0 0 0 0 0 0 0 
0 0 0 0 0 0 0 0 0 
0 0 0 0 0 0 0 0 0 
0 0 0 0 0 0 0 0 0 
0 0 0 0 0 0 0 0 0 
0 0 0 0 0 0 0 0 0 
0 0 0 0 0 0 0 0 0 
0 0 0 0 0 0 0 0 0 
0 0 0 0 0 0 0 0 0 
0 0 0 0 0 0 0 0 0 
0 0 0 0 0 0 0 0 0 
0 0 0 0 0 0 0 0 0 
0 0 0 0 0 0 0 0 0 
0 0 0 0 0 0 0 0 0 
0 0 0 0 0 0 0 0 0 
0 0 0 0 0 0 0 0 0 
0 0 0 0 0 0 0 0 0 
0 0 0 0 0 0 0 0 0 
0 0 0 0 0 0 0 0 0 
0 0 0 0 0 0 0 0 0 
0 0 0 0 0 0 0 0 0 
0 0 0 0 0 0 0 0 0 
0 0 0 0 0 0 0 0 0 
0 0 0 0 0 0 0 0 0 
0 0 0 0 0 0 0 0 0 
0 0 0 0 0 0 0 0 0 
0 0 0 0 0 0 0 0 0 
0 0 0 0 0 0 0 0 0 
0 0 0 0 0 0 0 0 0 
0 0 0 0 0 0 0 0 0 
0 0 0 0 0 0 0 0 0 
0 0 0 0 0 0 0 0 0 
0 0 0 0 0 0 0 0 0 
0 0 0 0 0 0 0 0 0 
0 0 0 0 0 0 0 0 0 
0 0 0 0 0 0 0 0 0 
0 0 0 0 0 0 0 0 0 
0 0 0 0 0 0 0 0 0 
0 0 0 0 0 0 0 0 0 
0 0 0 0 0 0 0 0 0 
0 0 0 0 0 0 0 0 0 
0 0 0 0 0 0 0 0 0 
0 0 0 0 0 0 0 0 0 
0 0 0 0 0 0 0 0 0 
0 0 0 0 0 0 0 0 0 
0 0 0 0 0 0 0 0 0 
0 0 0 0 0 0 0 0 0 
0 0 0 0 0 0 0 0 0 
0 0 0 0 0 0 0 0 0 
0 0 0 0 0 0 0 0 0 
0 0 0 0 0 0 0 0 0 
0 0 0 0 0 0 0 0 0 
0 0 0 0 0 0 0 0 0 
0 0 0 0 0 0 0 0 0 
0 0 0 0 0 0 0 0 0 
0 0 0 0 0 0 0 0 0 
0 0 0 0 0 0 0 0 0 
0 0 0 0 0 0 0 0 0 
0 0 0 0 0 0 0 0 0 
0 0 0 0 0 0 0 0 0 
0 0 0 0 0 0 0 0 0 
0 0 0 0 0 0 0 0 0 
0 0 0 0 0 0 0 0 0 
0 0 0 0 0 0 0 0 0 
0 0 0 0 0 0 0 0 0 
0 0 0 0 0 0 0 0 0 
0 0 0 0 0 0 0 0 0 
0 0 0 0 0 0 0 0 0 
0 0 0 0 0 0 0 0 0 
0 0 0 0 0 0 0 0 0 
0 0 0 0 0 0 0 0 0 
0 0 0 0 0 0 0 0 0 
0 0 0 0 0 0 0 0 0 
0 0 0 0 0 0 0 0 0 
0 0 0 0 0 0 0 0 0 
0 0 0 0 0 0 0 0 0 
0 0 0 0 0 0 0 0 0 
0 0 0 0 0 0 0 0 0 
0 0 0 0 0 0 0 0 0 
0 0 0 0 0 0 0 0 0 
0 0 0 0 0 0 0 0 0 
0 0 0 0 0 0 0 0 0 
0 0 0 0 0 0 0 0 0 
0 0 0 0 0 0 0 0 0 
0 0 0 0 0 0 0 0 0 
0 0 0 0 0 0 0 0 0 
0 0 0 0 0 0 0 0 0 
0 0 0 0 0 0 0 0 0 
0 0 0 0 0 0 0 0 0 
0 0 0 0 0 0 0 0 0 
0 0 0 0 0 0 0 0 0 
0 0 0 0 0 0 0 0 0 
0 0 0 0 0 0 0 0 0 
0 0 0 0 0 0 0 0 0 
0 0 0 0 0 0 0 0 0 
0 0 0 0 0 0 0 0 0 
0 0 0 0 0 0 0 0 0 
0 0 0 0 0 0 0 0 0 
0 0 0 0 0 0 0 0 0 
0 0 0 0 0 0 0 0 0 
0 0 0 0 0 0 0 0 0 
0 0 0 0 0 0 0 0 0 
0 0 0 0 0 0 0 0 0 
0 0 0 0 0 0 0 0 0 
0 0 0 0 0 0 0 0 0 
0 0 0 0 0 0 0 0 0 
0 0 0 0 0 0 0 0 0 
0 0 0 0 0 0 0 0 0 
0 0 0 0 0 0 0 0 0 
0 0 0 0 0 0 0 0 0 
0 0 0 0 0 0 0 0 0 
0 0 0 0 0 0 0 0 0 
0 0 0 0 0 0 0 0 0 
0 0 0 0 0 0 0 0 0 
0 0 0 0 0 0 0 0 0 
0 0 0 0 0 0 0 0 0 
0 0 0 0 0 0 0 0 0 
0 0 0 0 0 0 0 0 0 
0 0 0 0 0 0 0 0 0 
0 0 0 0 0 0 0 0 0 
0 0 0 0 0 0 0 0 0 
0 0 0 0 0 0 0 0 0 
0 0 0 0 0 0 0 0 0 
0 0 0 0 0 0 0 0 0 
0 0 0 0 0 0 0 0 0 
0 0 0 0 0 0 0 0 0 
0 0 0 0 0 0 0 0 0 
0 0 0 0 0 0 0 0 0 
0 0 0 0 0 0 0 0 0 
0 0 0 0 0 0 0 0 0 
0 0 0 0 0 0 0 0 0 
0 0 0 0 0 0 0 0 0 
0 0 0 0 0 0 0 0 0 
0 0 0 0 0 0 0 0 0 
0 0 0 0 0 0 0 0 0 
0 0 0 0 0 0 0 0 0 
0 0 0 0 0 0 0 0 0 
0 0 0 0 0 0 0 0 0 
0 0 0 0 0 0 0 0 0 
0 0 0 0 0 0 0 0 0 
0 0 0 0 0 0 0 0 0 
0 0 0 0 0 0 0 0 0 
0 0 0 0 0 0 0 0 0 
0 0 0 0 0 0 0 0 0 
0 0 0 0 0 0 0 0 0 
0 0 0 0 0 0 0 0 0 
0 0 0 0 0 0 0 0 0 
0 0 0 0 0 0 0 0 0 
0 0 0 0 0 0 0 0 0 
0 0 0 0 0 0 0 0 0 
0 0 0 0 0 0 0 0 0 
0 0 0 0 0 0 0 0 0 
0 0 0 0 0 0 0 0 0 
0 0 0 0 0 0 0 0 0 
0 0 0 0 0 0 0 0 0 
0 0 0 0 0 0 0 0 0 
0 0 0 0 0 0 0 0 0 
0 0 0 0 0 0 0 0 0 
0 0 0 0 0 0 0 0 0 
0 0 0 0 0 0 0 0 0 
0 0 0 0 0 0 0 0 0 
0 0 0 0 0 0 0 0 0 
0 0 0 0 0 0 0 0 0 
0 0 0 0 0 0 0 0 0 
0 0 0 0 0 0 0 0 0 
0 0 0 0 0 0 0 0 0 
0 0 0 0 0 0 0 0 0 
0 0 0 0 0 0 0 0 0 
0 0 0 0 0 0 0 0 0 
0 0 0 0 0 0 0 0 0 
0 0 0 0 0 0 0 0 0 
0 0 0 0 0 0 0 0 0 
0 0 0 0 0 0 0 0 0 
0 0 0 0 0 0 0 0 0 
0 0 0 0 0 0 0 0 0 
0 0 0 0 0 0 0 0 0 
0 0 0 0 0 0 0 0 0 
0 0 0 0 0 0 0 0 0 
0 0 0 0 0 0 0 0 0 
0 0 0 0 0 0 0 0 0 
0 0 0 0 0 0 0 0 0 
0 0 0 0 0 0 0 0 0 
0 0 0 0 0 0 0 0 0 
0 0 0 0 0 0 0 0 0 
0 0 0 0 0 0 0 0 0 
0 0 0 0 0 0 0 0 0 
0 0 0 0 0 0 0 0 0 
0 0 0 0 0 0 0 0 0 
0 0 0 0 0 0 0 0 0 
0 0 0 0 0 0 0 0 0 
0 0 0 0 0 0 0 0 0 
0 0 0 0 0 0 0 0 0 
0 0 0 0 0 0 0 0 0 
0 0 0 0 0 0 0 0 0 
0 0 0 0 0 0 0 0 0 
0 0 0 0 0 0 0 0 0 
0 0 0 0 0 0 0 0 0 
0 0 0 0 0 0 0 0 0 
0 0 0 0 0 0 0 0 0 
0 0 0 0 0 0 0 0 0 
0 0 0 0 0 0 0 0 0 
0 0 0 0 0 0 0 0 0 
0 0 0 0 0 0 0 0 0 
0 0 0 0 0 0 0 0 0 
0 0 0 0 0 0 0 0 0 
0 0 0 0 0 0 0 0 0 
0 0 0 0 0 0 0 0 0 
0 0 0 0 0 0 0 0 0 
0 0 0 0 0 0 0 0 0 
0 0 0 0 0 0 0 0 0 
0 0 0 0 0 0 0 0 0 
0 0 0 0 0 0 0 0 0 
0 0 0 0 0 0 0 0 0 
0 0 0 0 0 0 0 0 0 
0 0 0 0 0 0 0 0 0 
0 0 0 0 0 0 0 0 0 
0 0 0 0 0 0 0 0 0 
0 0 0 0 0 0 0 0 0 
0 0 0 0 0 0 0 0 0 
0 0 0 0 0 0 0 0 0 
0 0 0 0 0 0 0 0 0 
0 0 0 0 0 0 0 0 0 
0 0 0 0 0 0 0 0 0 
0 0 0 0 0 0 0 0 0 
0 0 0 0 0 0 0 0 0 
0 0 0 0 0 0 0 0 0 
0 0 0 0 0 0 0 0 0 
0 0 0 0 0 0 0 0 0 
0 0 0 0 0 0 0 0 0 
0 0 0 0 0 0 0 0 0 
0 0 0 0 0 0 0 0 0 
0 0 0 0 0 0 0 0 0 
0 0 0 0 0 0 0 0 0 
0 0 0 0 0 0 0 0 0 
0 0 0 0 0 0 0 0 0 
0 0 0 0 0 0 0 0 0 
0 0 0 0 0 0 0 0 0 
0 0 0 0 0 0 0 0 0 
0 0 0 0 0 0 0 0 0 
0 0 0 0 0 0 0 0 0 
0 0 0 0 0 0 0 0 0 
0 0 0 0 0 0 0 0 0 
0 0 0 0 0 0 0 0 0 
0 0 0 0 0 0 0 0 0 
0 0 0 0 0 0 0 0 0 
0 0 0 0 0 0 0 0 0 
0 0 0 0 0 0 0 0 0 
0 0 0 0 0 0 0 0 0 
0 0 0 0 0 0 0 0 0 
0 0 0 0 0 0 0 0 0 
0 0 0 0 0 0 0 0 0 
0 0 0 0 0 0 0 0 0 
0 0 0 0 0 0 0 0 0 
0 0 0 0 0 0 0 0 0 
0 0 0 0 0 0 0 0 0 
0 0 0 0 0 0 0 0 0 
0 0 0 0 0 0 0 0 0 
0 0 0 0 0 0 0 0 0 
0 0 0 0 0 0 0 0 0 
0 0 0 0 0 0 0 0 0 
0 0 0 0 0 0 0 0 0 
0 0 0 0 0 0 0 0 0 
0 0 0 0 0 0 0 0 0 
0 0 0 0 0 0 0 0 0 
0 0 0 0 0 0 0 0 0 
0 0 0 0 0 0 0 0 0 
0 0 0 0 0 0 0 0 0 
0 0 0 0 0 0 0 0 0 
0 0 0 0 0 0 0 0 0 
0 0 0 0 0 0 0 0 0 
0 0 0 0 0 0 0 0 0 
0 0 0 0 0 0 0 0 0 
0 0 0 0 0 0 0 0 0 
0 0 0 0 0 0 0 0 0 
0 0 0 0 0 0 0 0 0 
0 0 0 0 0 0 0 0 0 
0 0 0 0 0 0 0 0 0 
0 0 0 0 0 0 0 0 0 
0 0 0 0 0 0 0 0 0 
0 0 0 0 0 0 0 0 0 
0 0 0 0 0 0 0 0 0 
0 0 0 0 0 0 0 0 0 
0 0 0 0 0 0 0 0 0 
0 0 0 0 0 0 0 0 0 
0 0 0 0 0 0 0 0 0 
0 0 0 0 0 0 0 0 0 
0 0 0 0 0 0 0 0 0 
0 0 0 0 0 0 0 0 0 
0 0 0 0 0 0 0 0 0 
0 0 0 0 0 0 0 0 0 
0 0 0 0 0 0 0 0 0 
0 0 0 0 0 0 0 0 0 
0 0 0 0 0 0 0 0 0 
0 0 0 0 0 0 0 0 0 
0 0 0 0 0 0 0 0 0 
0 0 0 0 0 0 0 0 0 
0 0 0 0 0 0 0 0 0 
0 0 0 0 0 0 0 0 0 
0 0 0 0 0 0 0 0 0 
0 0 0 0 0 0 0 0 0 
0 0 0 0 0 0 0 0 0 
0 0 0 
v 3 1087 double
-0.0840413 0.0194925 5.44423e-15 -0.271225 -0.505264 5.44352e-15 0.00702875 -0.533665 -8.98586e-15 
-0.113778 -0.365571 5.44352e-15 -0.194565 -0.576322 -8.98512e-15 -0.46422 -0.358403 5.44423e-15 
-0.454728 -0.488477 -5.37872e-15 -0.104054 -0.481303 5.44424e-15 -0.0580752 -0.55727 1.83968e-09 
-0.0580117 -0.562188 -1.66334e-09 -0.495957 -0.44606 9.0514e-15 -0.0728213 -0.404399 1.83709e-15 
-0.000711153 -0.548632 -8.98586e-15 -0.0364449 -0.449537 5.44424e-15 0.0267071 -0.382094 -8.98585e-15 
-0.594093 -0.403997 5.44423e-15 -0.240495 -0.429254 -8.98585e-15 -0.0330949 -0.433616 1.83709e-15 
0.065273 -0.639922 5.44424e-15 -0.097822 -0.381714 5.44424e-15 -0.000915907 -0.4864 5.44423e-15 
-0.0147235 -0.503796 -1.77155e-15 -0.409027 -0.517017 5.44425e-15 -0.083883 -0.446812 -8.98513e-15 
-0.415247 -0.411509 -5.37871e-15 -0.100349 -0.385773 -8.98585e-15 -0.429482 -0.523151 5.44425e-15 
-0.12602 -0.449362 9.05139e-15 -0.112645 -0.327858 -1.77154e-15 -0.0245307 -0.432338 5.44423e-15 
-0.400016 -0.367144 1.83708e-15 -0.0998774 -0.409822 -5.37945e-15 -0.240138 -0.27958 5.44423e-15 
-0.104403 -0.368359 -1.77153e-15 -0.159603 -0.332925 -1.77155e-15 -0.525943 -0.303857 -8.98585e-15 
-0.543962 -0.311251 1.62742e-08 -0.479574 -0.327887 -6.57024e-06 -0.282785 -0.344592 -1.77082e-15 
-0.279018 -0.204711 -8.98586e-15 -0.189764 -0.221122 5.44424e-15 -0.358154 -0.252984 9.0514e-15 
-0.458031 -0.309267 -5.37871e-15 -0.305064 -0.245826 -1.77081e-15 -0.352172 -0.206958 -5.37872e-15 
-0.271357 -0.580842 9.05139e-15 -0.134547 -0.331311 -2.80871e-12 -0.0813456 -0.243875 -1.77155e-15 
-0.269512 -0.222504 -5.37944e-15 -0.539031 -0.316707 -1.77081e-15 -0.593346 -0.386101 -8.98513e-15 
-0.13323 -0.322734 -8.98513e-15 -0.24089 -0.203807 -5.37872e-15 -0.079331 -0.254173 -1.77154e-15 
0.0317654 -0.336088 1.83708e-15 -0.531493 -0.252255 1.83636e-15 -0.130546 -0.234789 1.83635e-15 
-0.196407 -0.275391 5.44424e-15 -0.0944741 -0.296123 9.05139e-15 -0.1046 -0.28717 -0.044981 
-0.175076 -0.277286 5.44424e-15 -0.0375305 -0.0999471 1.38344e-12 -0.527721 -0.111603 -1.77155e-15 
-0.252007 -0.218249 -8.98512e-15 -0.0320745 -0.348371 5.44352e-15 -0.131759 -0.307147 -8.98584e-15 
-0.289838 -0.190374 -1.77082e-15 -0.0956571 -0.171436 9.0514e-15 -0.00185212 -0.198044 5.44352e-15 
-0.412615 -0.231444 5.44424e-15 -0.326003 -0.136593 1.83708e-15 -0.2612 -0.229423 9.05139e-15 
-0.0394287 -0.103113 1.83636e-15 -0.142061 -0.246824 -8.98513e-15 0.00539148 -0.200355 9.05067e-15 
-0.161284 -0.172157 -8.98513e-15 -0.292286 -0.0100157 -0.00340846 -0.342672 -0.23338 0.0125705 
-0.0699538 -0.207344 9.05068e-15 -0.296803 -0.210145 -8.98585e-15 0.156383 -0.289634 -5.51985e-06 
-0.171951 -0.258666 -0.00374758 -0.133264 -0.269593 -0.00259301 -0.190335 -0.183098 1.83708e-15 
-0.138397 -0.110893 -1.77082e-15 -0.180693 -0.167766 1.83709e-15 -0.302983 -0.192537 1.83709e-15 
-0.134607 -0.163564 -1.77081e-15 -0.0786259 -0.178465 5.44351e-15 -0.104319 -0.16333 9.05067e-15 
-0.0853533 -0.148181 -1.77153e-15 -0.126639 -0.146048 5.44352e-15 -0.328668 -0.105279 -8.98584e-15 
-0.0730838 -0.118813 5.44425e-15 0.021524 -0.223809 -2.5703e-10 -0.084844 -0.160511 5.44424e-15 
-0.358506 -0.215242 5.44352e-15 -0.189885 -0.115599 5.44425e-15 -0.291937 -0.13316 -1.77155e-15 
-0.27106 -0.0801198 -1.77082e-15 -0.297713 -0.154144 9.05068e-15 -0.255263 -0.142755 1.83709e-15 
-0.0511371 -0.101312 1.83708e-15 -0.54875 -0.266625 -8.98586e-15 -0.315833 -0.164396 -5.37872e-15 
-0.179508 -0.0892691 1.83708e-15 0.055983 -0.00227454 9.05139e-15 0.0163556 -0.000294724 1.20879e-13 
-0.31126 -0.305282 -5.37944e-15 -0.128126 -0.163503 -5.37871e-15 0.0485869 -0.100801 -1.77082e-15 
-0.174315 -0.137426 -2.59458e-10 -0.0163651 -0.00869658 1.04377e-10 -0.546652 -0.19829 -8.98585e-15 
0.0129798 -0.0460046 -8.98585e-15 0.00826481 -0.0680358 1.73645e-15 -0.0585536 -0.0379871 -5.72735e-07 
-0.174441 -0.0428261 -1.92955e-05 -0.548673 -0.237362 -8.98513e-15 -0.0153917 -0.102625 -5.29911e-07 
0.00071708 -0.0999276 -1.77082e-15 -0.0667544 -0.101736 2.3562e-05 -0.248259 -0.192275 -8.98586e-15 
-0.142792 0.0097642 9.0514e-15 -0.303275 -0.117595 -8.98586e-15 -0.137023 0.0126081 -8.98586e-15 
0.0685903 -0.173624 1.44597e-13 0.0282015 -0.156197 -1.77081e-15 -0.201708 -0.110442 5.44352e-15 
-0.0858901 -0.266085 -1.77082e-15 -0.271256 -0.0762947 9.05139e-15 0 0 -6.18805e-05 
0 0 3.83906e-10 0.0241155 0.0556218 8.75147e-05 -0.0250712 -0.0164885 8.59557e-15 
-0.113907 -0.161342 5.44351e-15 -0.0524988 -0.0662528 5.44351e-15 -0.0371299 0.00419571 1.83635e-15 
-0.0778041 -0.0833375 -0.0023198 -0.115891 -0.0686484 -1.77081e-15 0 0 -2.07063e-10 
-0.0243762 -0.174343 -1.77082e-15 -0.060185 -0.126097 5.44351e-15 -0.425604 -0.122076 -1.77081e-15 
-0.349142 -0.0849036 -1.77154e-15 -0.244078 -0.0432024 -8.98585e-15 -0.158354 -0.051567 1.83636e-15 
-0.312649 -0.0242755 9.05139e-15 -0.0980178 -0.109491 -8.98513e-15 -0.433445 -0.0801419 2.99582e-14 
-0.430492 -0.045309 -1.72467e-12 -0.0784439 -0.0627787 5.44352e-15 -0.0514648 -0.0558734 -1.77155e-15 
-0.23008 -0.109247 9.05067e-15 0.255967 -0.0166265 -5.37871e-15 -0.0964141 -0.107478 9.0514e-15 
-0.0363835 -0.0485121 -8.98514e-15 0.00351762 0.00239646 -1.77155e-15 -0.237128 -0.0214254 -1.77154e-15 
-0.126395 -0.091979 -5.37944e-15 -0.00216847 -0.0279359 -8.98513e-15 0.0339214 -0.0621196 6.11911e-14 
-0.455764 -0.110511 9.05139e-15 -0.196598 -0.0585791 -1.77154e-15 -0.0100133 -0.00516577 -5.8193e-14 
-0.260473 -0.0142517 9.05068e-15 -0.0139563 0.00236412 -5.37943e-15 -0.120576 -0.00837859 1.83127e-15 
-0.0844781 -0.0780791 -8.98586e-15 -0.283676 -0.104348 5.44424e-15 -0.347888 0.0225492 9.05068e-15 
-0.0420524 -0.0471642 9.05139e-15 0.084096 -0.0691879 1.83709e-15 -0.331094 -0.0188703 -1.70586e-13 
-0.30961 0.0145083 3.53815e-12 -0.208701 -0.0880825 5.44423e-15 -0.0412401 -0.0153852 1.85384e-06 
-0.0763946 -0.0907426 9.0514e-15 -0.0965307 0.0140812 -5.37945e-15 -0.30733 -0.0883528 9.0514e-15 