# vtk DataFile Version 4.0
Generated by LIGGGHTS
ASCII
DATASET POLYDATA
POINTS 1359 float
-0.0485694 -0.0112521 0.024005 -0.00196893 -0.00109252 0.00862553 -0.201989 -0.336294 0.00149966 
-0.106508 -0.331816 0.00149966 -0.0924312 -0.331095 0.00149966 -0.213864 -0.329603 0.00149966 
-0.00101752 -0.324236 0.00149966 -0.201873 -0.320255 0.00149966 -0.129386 -0.319395 0.00149966 
-0.175178 -0.315545 0.00149966 -0.202218 -0.306035 0.00149966 -0.0251032 -0.304471 0.00149966 
-0.206982 -0.297104 0.00149966 -0.00740785 -0.298077 0.00149966 -0.101394 -0.290729 0.00149966 
-0.206078 -0.287759 0.00149966 -0.149005 -0.281542 0.00149966 -0.0172211 -0.271047 0.00149966 
-0.000236369 -0.269168 0.00149966 -0.21973 -0.262522 0.00149966 -0.139011 -0.262772 0.00149966 
-0.113143 -0.257366 0.00149966 -0.0978596 -0.248361 0.00149966 -0.324322 -0.248162 0.00149966 
-0.0727314 -0.250385 0.00149966 -0.171709 -0.244107 0.00149966 -0.040278 -0.244318 0.00149966 
-0.0206814 -0.241231 0.00149966 -0.202339 -0.238331 0.00149966 -0.123755 -0.235983 0.00149966 
-0.286396 -0.232751 0.00149966 -0.0962345 -0.230208 0.00149966 -0.0450863 -0.223817 0.00149966 
-0.014461 -0.224058 0.00149966 -0.00560459 -0.225334 0.00149966 -0.212879 -0.218678 0.00149966 
-0.0660215 -0.214188 0.00149966 -0.0639484 -0.209547 0.00149966 -0.101459 -0.205941 0.00149966 
-0.031838 -0.202629 0.00149966 -0.238884 -0.199059 0.00149966 -0.057996 -0.199728 0.00149966 
-0.0535899 -0.200155 0.00149966 -0.173116 -0.195854 0.00149966 -0.00339492 -0.193305 0.00149966 
-0.0491105 -0.188778 0.00149966 -0.0406064 -0.190777 0.00149966 -0.298361 -0.180696 0.00149966 
-0.315535 -0.173487 0.00149966 -0.304439 -0.174041 0.00149966 -0.218474 -0.171511 0.00149967 
-0.0418982 -0.171341 0.00149966 -0.0166424 -0.171173 0.00149965 -0.137946 -0.166366 0.00149966 
-0.319595 -0.166251 0.00149966 -0.0778925 -0.163666 0.00149966 -0.203397 -0.157153 0.00149966 
-0.166277 -0.154205 0.00149966 -0.137832 -0.143565 0.00149966 -0.040061 -0.142784 0.00149966 
-0.206014 -0.142559 0.00149966 -0.135432 -0.137212 0.00149966 -0.222567 -0.131113 0.00149966 
-0.248369 -0.127773 0.00149966 -0.0702363 -0.127347 0.00149966 -0.325189 -0.124146 0.00149966 
-0.0653064 -0.125856 0.00149966 -0.208732 -0.122186 0.00149966 -0.150304 -0.118754 0.00149966 
-0.253916 -0.113332 0.00149966 -0.0943985 -0.107728 0.00149966 -0.0741313 -0.105023 0.00149966 
-0.251501 -0.099985 0.00149966 -0.0519224 -0.0962209 0.00149966 -0.305787 -0.0940182 0.00149966 
-0.113537 -0.0916558 0.00149966 -0.0519295 -0.0927055 0.00149966 -0.192822 -0.0885116 0.00149966 
-0.161283 -0.0889101 0.00149966 -0.0349685 -0.0884957 0.00149966 -0.260413 -0.0838012 0.00149966 
-0.114729 -0.0818646 0.00149966 -0.110201 -0.0801481 0.00149966 -0.0985958 -0.0818828 0.00149966 
-0.0106037 -0.0811374 0.00149966 -0.262853 -0.081038 0.00149966 -0.228311 -0.0774552 0.00149966 
-0.104385 -0.0836797 0.00149966 -0.0631223 -0.081516 0.00149987 -0.0601678 -0.0793687 0.00149856 
-0.0525037 -0.0778708 0.00149966 -0.310867 -0.0758561 0.00149966 -0.116248 -0.073693 0.00149966 
-0.0869549 -0.0747588 0.00234828 -0.0636854 -0.076359 0.00149956 -0.058046 -0.0748045 0.00149966 
-0.126731 -0.0730883 0.00149966 -0.0938296 -0.0756602 0.00149966 -0.0900073 -0.0735744 0.00149966 
-0.0797241 -0.06714 0.00149966 -0.0174727 -0.0659682 0.00149966 -0.00251929 -0.0665513 0.00188013 
-0.250217 -0.062333 0.00149966 -0.0109496 -0.0644388 0.00149966 -0.281975 -0.0607981 0.00149966 
-0.0436673 -0.0587136 0.00149966 -0.03367 -0.0595504 0.0015011 -0.00513143 -0.0587778 0.00149966 
-0.0725359 -0.0110351 0.0291896 -0.177338 -0.0589642 0.00149966 -0.121356 -0.0591182 0.00149966 
-0.0859937 -0.0584571 0.00149966 -0.0657774 -0.0562434 0.00149966 -0.0537244 -0.0595165 0.0015002 
-0.31659 -0.0501052 0.00149966 -0.130158 -0.046338 0.00149966 -0.308713 -0.0392885 0.00149966 
-0.0637226 -0.0412373 0.00149966 -0.0110923 -0.0418489 0.00149966 -0.00208868 -0.0413997 0.00149966 
-0.219593 -0.041084 0.00149966 -0.138066 -0.0383143 0.00149966 -0.12944 -0.0369628 0.0015026 
-0.158297 -0.033657 0.00171525 -0.178486 -0.0331162 0.00149966 -0.145006 -0.0327993 0.00149966 
-0.129993 -0.0339765 0.00150037 -0.12128 -0.0320957 0.00149966 -0.239996 -0.0292098 0.00149966 
-0.226251 -0.0323524 0.00149966 -0.131175 -0.0308284 0.00149966 -0.00574101 -0.0301535 0.00149966 
-0.00414915 -0.0237616 0.00149966 -0.296128 -0.0240549 0.00149966 -0.0700456 -0.0237288 0.00149966 
-0.0196915 -0.0246951 0.00155321 -0.00118941 -0.0228769 0.00149966 -0.0778196 -0.0219364 0.00198108 
-0.0061075 -0.0189877 0.00164601 -0.311675 -0.0191798 0.00149966 -0.110275 -0.0171338 0.00149966 
-0.104863 -0.0176596 0.00149966 -0.0880179 -0.0188663 0.00149966 -0.0618743 -0.017436 0.00149966 
-0.0559294 -0.017529 0.00149966 -0.0183623 -0.0126747 0.00149966 -0.00721618 -0.01615 0.00173232 
-0.00142393 -0.0141754 0.00149966 -0.0122725 -0.0109767 0.00149966 -0.00445776 -0.010067 0.00149966 
-0.234401 -0.00735573 0.00149966 -0.134555 -0.00716195 0.00149966 -0.131091 -0.00731012 0.00149966 
-0.0628186 -0.00626438 0.00149966 -0.0497145 -0.00584859 0.00149966 -0.0419564 -0.00698584 0.00149966 
-0.0351917 -0.00712678 0.00149966 -0.0277023 -0.00808277 0.00149966 -0.0220505 -0.00851804 0.00149966 
-0.0229618 -0.0055812 0.00149966 -0.300746 -9.75542e-05 0.00149966 -0.174572 -0.00132112 0.00149966 
-0.0147415 -0.0611842 0.0295309 -0.0214971 -0.00154696 0.00149966 -0.169999 -0.105782 0.0312847 
-0.0710471 -0.323642 0.00488724 -0.0190401 -0.32339 0.00150223 -0.222306 -0.318328 0.00519278 
-0.215596 -0.322809 0.00183072 -0.0773363 -0.312416 0.00268627 -0.0894888 -0.264008 0.00152014 
-0.25981 -0.250583 0.00297313 -0.0270345 -0.236785 0.00435261 -0.0848775 -0.231119 0.00376227 
-0.0713381 -0.226792 0.00398644 -0.287179 -0.226146 0.00164757 -0.14362 -0.217594 0.00409429 
-0.0502922 -0.217789 0.00151434 -0.200234 -0.215732 0.00238589 -0.205476 -0.209271 0.00485018 
-0.0186675 -0.20439 0.00255999 -0.036937 -0.196622 0.00313183 -0.318931 -0.192539 0.00149986 
-0.207827 -0.179295 0.00438677 -0.15987 -0.182429 0.00175745 -0.0777694 -0.179667 0.00494556 
-0.097639 -0.167334 0.0018312 -0.033625 -0.168869 0.00151568 -0.070039 -0.162729 0.00416384 
-0.0878207 -0.160858 0.00160975 -0.0891855 -0.154725 0.00442736 -0.159588 -0.145028 0.00416194 
-0.0815595 -0.0117112 0.0278264 -0.248071 -0.114371 0.00462523 -0.154354 -0.111528 0.00182461 
-0.00619589 -0.1139 0.00213039 -0.0264161 -0.110748 0.00166267 -0.154638 -0.106828 0.0038202 
-0.151508 -0.1051 0.00467681 -0.00174526 -0.0985554 0.00291325 -0.0574697 -0.0939093 0.00246743 
-0.0259514 -0.0900699 0.0103287 -0.00277204 -0.0905417 0.00156542 -0.121626 -0.0801371 0.00401997 
-0.0464498 -0.0810951 0.00963373 -0.0370901 -0.0823878 0.00232284 -0.0770301 -0.0727994 0.00238835 
-0.0376945 -0.0569813 0.00151129 -0.109234 -0.0505498 0.00237897 -0.0131026 -0.0458761 0.00352348 
-0.198118 -0.0416416 0.00209406 -0.0377471 -0.043732 0.0015058 -0.107046 -0.0379581 0.00313936 
-0.0926421 -0.0360238 0.00837527 -0.0127772 -0.0361984 0.00158834 -0.0423533 -0.0311614 0.0278337 
-0.0205527 -0.0355117 0.00152163 -0.0117166 -0.0295313 0.00194447 -0.0654566 -0.0294551 0.00949058 
-0.0186359 -0.0283338 0.00454541 -0.297971 -0.0276442 0.00203176 -0.0134909 -0.0265995 0.00286479 
-0.277713 -0.0261899 0.00179602 -0.0152308 -0.0228189 0.00232356 -0.00378306 -0.0209235 0.00718476 
-0.244021 -0.0205384 0.00150451 -0.171263 -0.0199355 0.00164588 -0.246166 -0.013961 0.00151983 
-0.0779142 -0.01012 0.00291108 -0.0469991 -0.014104 0.00945733 -0.0192108 -0.016737 0.00493611 
-0.169236 -0.0109684 0.00327982 -0.120725 -0.00661181 0.00178206 -0.0708324 -0.00823077 0.00217389 
-0.177068 -0.00525625 0.00153137 -0.0708457 -0.00294179 0.00906286 -0.0585268 -0.00171722 0.00149947 
-0.0540911 -0.000759403 0.00174282 -0.00876036 -0.22836 0.00278425 -0.195696 -0.158052 0.00177508 
-0.05026 -0.119647 0.00534086 -0.0547714 -0.060901 0.00595978 -0.032441 -0.0642264 0.00449743 
-0.00306943 -0.0661662 0.00535314 -0.0858516 -0.0249694 0.0077677 -0.224635 -0.0200718 0.00587039 
-0.00503922 -0.0142525 0.00326471 -0.00991322 -0.00905613 0.00519097 -0.190338 -0.00368334 0.00501307 
-0.0495809 -0.000681297 0.00305727 -0.000750723 -0.164602 0.00637918 -0.0391098 -0.0805017 0.0082196 
-0.0369944 -0.0655106 0.0145062 -0.039625 -0.0633023 0.00720086 -0.115477 -0.0364445 0.00540629 
-0.0621701 -0.0296399 0.00427969 -0.0901006 -0.0209487 0.0149298 -0.0332489 -0.0140985 0.0139078 
-0.190627 -0.257151 0.00960712 -0.17645 -0.111097 0.0100256 -0.0247513 -0.0959061 0.00299522 
-0.0746852 -0.0931827 0.0092273 -0.0157184 -0.0787242 0.0180788 -0.0608052 -0.0527573 0.00295183 
-0.0281457 -0.0454633 0.0174073 -0.133474 -0.290166 0.0136032 -0.127048 -0.107151 0.0128458 
-0.0395954 -0.104255 0.0146692 -0.0432194 -0.0881034 0.0191459 -0.0509716 -0.0794334 0.0189398 
-0.0340117 -0.0730742 0.0138887 -0.202054 -0.0312661 0.0119594 -0.0374447 -0.0325562 0.0199068 
-0.0256514 -0.02288 0.0187904 -0.0761728 -0.0184734 0.00258253 -0.0233082 -0.0180313 0.0123436 
-0.00296965 -0.0176229 0.0017481 -0.0302567 -0.0125363 0.0122091 -0.224335 -0.294496 0.0137389 
-0.0387428 -0.257051 0.0183603 -0.0955144 -0.187265 0.0184637 -0.0292692 -0.0782209 0.0208747 
-0.113177 -0.0740896 0.020768 -0.029818 -0.0662745 0.0199513 -0.235397 -0.0650018 0.0204023 
-0.292066 -0.0533302 0.0148395 -0.00383244 -0.0370374 0.0152892 -0.0131954 -0.0284281 0.0205199 
-0.0712065 -0.0251373 0.020961 -0.171243 -0.149788 0.0226142 -0.111162 -0.147285 0.0231189 
-0.00213352 -0.0894012 0.0192735 -0.0464065 -0.0551901 0.020397 -0.0882755 -0.0466527 0.0234428 
-0.0748749 -0.0491536 0.0191164 -0.0655206 -0.0346604 0.0216368 -0.0720076 -0.0310205 0.023093 
-0.0504029 -0.0212287 0.0237877 -0.065182 -0.0140542 0.0246875 -0.0314519 -0.0115455 0.0252583 
-0.0837722 -0.00814494 0.0252099 -0.0646042 -0.00298797 0.0255624 -0.0171306 -0.132114 0.0229295 
-0.0393875 -0.0849045 0.0256013 -0.00448914 -0.08581 0.02323 -0.059581 -0.078365 0.0254593 
[...]
POINT_DATA 1359
FIELD FieldData 7
id 1 1359 int
21 904 1073 408 187 971 377 1280 1207 
155 761 52 928 308 762 755 1374 806 
304 110 157 1387 478 1214 618 405 1236 
1456 913 1365 316 782 1358 1210 758 936 
463 30 1108 1100 642 4 374 1051 704 
589 788 307 919 921 980 1452 160 1431 
1391 838 469 178 759 84 1383 490 633 
905 927 615 314 1376 442 1198 356 903 
934 319 1382 1065 726 774 506 467 1267 
676 39 177 1136 452 1224 337 182 630 
373 1203 1209 464 628 1281 456 1182 901 
772 997 1233 156 147 969 804 612 64 
175 58 1045 159 647 371 1098 1052 910 
1005 1164 1323 366 511 487 1235 1223 1377 
11 998 163 1393 925 1394 541 868 31 
586 390 327 677 965 664 1401 384 1226 
1257 958 732 1222 434 360 1261 1242 1202 
829 77 75 107 1273 845 626 1441 1122 
173 697 317 620 1194 38 954 760 862 
990 803 1390 24 688 1300 835 483 673 
1002 1109 1410 1085 397 391 10 1266 1196 
1125 692 884 20 171 15 357 229 25 
1055 474 1200 1116 310 466 1354 1439 1068 
852 479 1336 1014 328 627 1227 1145 313 
1130 336 1371 938 333 344 1472 1231 1368 
1119 808 431 393 1373 1107 1213 499 315 
1053 1380 590 302 81 937 932 1361 1070 
354 23 909 526 1405 481 947 1245 912 
1208 305 1121 306 1204 1078 952 1057 1352 
421 916 1353 935 1375 1497 465 1082 1071 
754 1269 1086 1075 1364 1483 1467 701 623 
1232 1211 1062 1357 27 1412 1060 101 1428 
1079 1039 1120 839 7 915 388 303 931 
766 781 769 763 604 152 786 756 771 
787 764 34 382 629 602 767 639 778 
607 36 638 167 480 151 9 16 477 
28 458 603 1159 1012 1010 1094 700 334 
655 1253 96 215 76 1362 1279 1093 1088 
1114 641 1241 1392 1350 792 963 454 1332 
578 671 1228 822 1422 185 809 972 93 
471 1186 1205 1370 1076 959 1287 61 805 
652 345 583 1485 791 353 611 1017 1396 
1099 222 605 1189 819 650 40 709 320 
565 1023 342 1457 1345 208 1402 295 1415 
960 56 66 202 521 765 867 1409 870 
1225 1255 669 451 654 795 610 1406 581 
943 918 799 196 141 562 1308 535 195 
492 1252 1 1254 933 1124 721 970 122 
911 515 42 365 926 646 1183 1104 534 
731 1154 691 62 649 45 946 644 1106 
415 209 429 1013 820 1123 1111 818 349 
1113 814 1212 278 1259 887 180 1169 1275 
351 1417 475 309 582 1263 1230 1117 890 
520 352 288 213 72 817 974 49 446 
875 523 355 265 158 212 519 73 1378 
801 1426 326 491 1069 522 1217 1256 940 
955 714 172 273 498 752 1229 1468 453 
217 1310 625 1395 563 301 968 2 1471 
1399 207 53 1187 1064 712 1155 670 6 
811 1240 815 145 71 1416 1251 865 883 
402 738 32 220 966 1272 17 63 826 
468 1498 1268 70 165 973 214 1250 80 
427 1398 939 1262 556 494 1118 773 1379 
945 432 135 192 513 660 142 842 908 
1243 800 138 282 569 35 1340 1089 1090 
533 510 1276 907 961 1339 1297 1248 956 
944 524 1389 59 957 807 816 1421 347 
1414 566 1400 651 495 794 790 753 1077 
825 1419 951 600 1369 662 796 930 606 
205 657 55 50 672 115 668 948 362 
376 47 216 341 504 203 350 348 67 
507 343 518 191 369 358 501 204 54 
46 60 74 193 340 57 51 1238 1168 
552 154 547 978 1143 1087 1440 396 266 
277 403 1152 843 684 102 106 711 275 
1451 259 634 1458 1150 776 1027 230 271 
168 857 472 339 1448 325 889 1135 698 
530 482 849 227 257 79 237 274 703 
1000 1437 789 286 1147 269 1134 841 329 
924 554 1215 834 725 289 1234 532 873 
768 1146 194 312 1432 964 1009 784 98 
632 321 559 656 1219 1313 993 455 823 
896 979 994 392 780 29 254 631 1372 
779 1430 1006 710 3 675 261 837 457 
5 381 678 484 1289 717 1363 681 728 
1127 1180 1307 231 241 1201 695 598 708 
249 1188 387 828 976 1321 527 1429 12 
367 1011 459 832 1141 577 1191 1413 363 
693 1388 267 1061 26 1344 863 18 1341 
104 1293 1172 170 97 239 1285 1301 144 
853 1304 1355 500 248 108 1484 238 1016 
1083 1260 619 609 1179 785 802 1054 860 
90 433 985 593 407 719 833 250 1420 
1425 255 529 258 493 1327 640 572 850 
118 83 1066 1303 323 1080 1454 1177 1449 
161 235 281 1359 854 1007 757 1091 1037 
1435 85 146 1161 1290 246 1330 869 105 
166 588 1278 509 473 560 1312 1384 41 
247 1115 1237 775 545 311 621 538 608 
1162 441 1206 987 1035 1356 689 783 1478 
917 1460 1192 188 443 1438 1465 318 280 
8 1175 117 1306 1462 558 1295 262 412 
1444 22 82 1496 920 831 1434 383 1294 
576 1157 1404 1132 460 1144 751 1156 1271 
573 1149 420 1292 488 540 992 986 86 
424 1158 1443 1160 1351 1163 982 1138 485 
1151 906 1487 1461 1284 1282 591 848 981 
1283 859 682 91 1133 1286 858 94 844 
1386 1436 696 636 705 359 561 827 707 
851 685 549 846 855 1427 87 399 95 
551 103 409 553 401 694 99 260 531 
830 385 395 233 410 400 389 557 236 
398 232 729 544 378 406 111 268 1482 
143 322 1036 346 335 539 977 1324 983 
1476 287 821 747 113 372 414 1193 114 
1026 1142 686 1258 476 882 1314 941 1024 
413 683 1446 667 723 1216 181 596 720 
546 331 505 1349 1004 1220 658 601 1459 
234 750 200 613 298 43 635 876 164 
176 125 516 1346 418 14 663 244 1445 
878 211 1137 861 1407 279 285 749 1105 
1274 1001 840 897 881 1442 1500 517 226 
1165 148 637 1265 1181 898 872 1195 1003 
100 988 1048 1101 1029 422 1317 680 1342 
1171 745 892 599 824 536 866 1298 445 
1450 297 1475 568 895 715 448 942 1197 
1296 447 291 798 1335 1488 127 735 1170 
856 580 1018 1038 1174 19 748 210 1244 
1032 967 1042 503 1423 730 1129 687 574 
123 1190 136 1494 251 645 131 1299 746 
256 1320 864 1239 1464 741 836 438 386 
139 1096 243 508 1046 1019 444 514 736 
121 564 116 370 706 272 1049 595 1020 
1492 1028 1044 888 1176 1469 201 661 1112 
89 679 1092 1470 1031 411 130 1481 996 
949 722 224 65 989 1326 1473 1334 1366 
449 1479 1095 624 1480 1489 770 338 1453 
242 891 132 44 548 570 542 810 218 
525 1173 134 1348 68 995 417 950 1347 
962 290 1495 1463 1291 1360 364 1128 189 
223 699 584 124 1047 1043 1338 659 585 
1418 140 129 1325 199 404 1167 1490 1288 
1166 716 1499 183 293 1315 1034 690 1343 
1021 1040 537 1328 1493 1072 1041 1337 1139 
1486 1333 1466 886 1447 1022 740 874 899 
1033 1178 1110 1102 1474 1491 739 885 1316 
1477 813 1050 1322 724 1184 78 984 742 
893 894 877 743 733 744 150 497 276 
439 69 880 119 264 120 1015 592 426 
734 737 419 284 587 579 450 128 594 
133 437 423 666 793 440 137 296 292 

type 1 1359 int
1 1 1 1 1 1 1 1 1 
1 1 1 1 1 1 1 1 1 
1 1 1 1 1 1 1 1 1 
1 1 1 1 1 1 1 1 1 
1 1 1 1 1 1 1 1 1 
1 1 1 1 1 1 1 1 1 
1 1 1 1 1 1 1 1 1 
1 1 1 1 1 1 1 1 1 
1 1 1 1 1 1 1 1 1 
1 1 1 1 1 1 1 1 1 
1 1 1 1 1 1 1 1 1 
1 1 1 1 1 1 1 1 1 
1 1 1 1 1 1 1 1 1 
1 1 1 1 1 1 1 1 1 
1 1 1 1 1 1 1 1 1 
1 1 1 1 1 1 1 1 1 
1 1 1 1 1 1 1 1 1 
1 1 1 1 1 1 1 1 1 
1 1 1 1 1 1 1 1 1 
1 1 1 1 1 1 1 1 1 
1 1 1 1 1 1 1 1 1 
1 1 1 1 1 1 1 1 1 
1 1 1 1 1 1 1 1 1 
1 1 1 1 1 1 1 1 1 
1 1 1 1 1 1 1 1 1 
1 1 1 1 1 1 1 1 1 
1 1 1 1 1 1 1 1 1 
1 1 1 1 1 1 1 1 1 
1 1 1 1 1 1 1 1 1 
1 1 1 1 1 1 1 1 1 
1 1 1 1 1 1 1 1 1 
1 1 1 1 1 1 1 1 1 
1 1 1 1 1 1 1 1 1 
1 1 1 1 1 1 1 1 1 
1 1 1 1 1 1 1 1 1 
1 1 1 1 1 1 1 1 1 
1 1 1 1 1 1 1 1 1 
1 1 1 1 1 1 1 1 1 
1 1 1 1 1 1 1 1 1 
1 1 1 1 1 1 1 1 1 
1 1 1 1 1 1 1 1 1 
1 1 1 1 1 1 1 1 1 
1 1 1 1 1 1 1 1 1 
1 1 1 1 1 1 1 1 1 
1 1 1 1 1 1 1 1 1 
1 1 1 1 1 1 1 1 1 
1 1 1 1 1 1 1 1 1 
1 1 1 1 1 1 1 1 1 
1 1 1 1 1 1 1 1 1 
1 1 1 1 1 1 1 1 1 
1 1 1 1 1 1 1 1 1 
1 1 1 1 1 1 1 1 1 
1 1 1 1 1 1 1 1 1 
1 1 1 1 1 1 1 1 1 
1 1 1 1 1 1 1 1 1 
1 1 1 1 1 1 1 1 1 
1 1 1 1 1 1 1 1 1 
1 1 1 1 1 1 1 1 1 
1 1 1 1 1 1 1 1 1 
1 1 1 1 1 1 1 1 1 
1 1 1 1 1 1 1 1 1 
1 1 1 1 1 1 1 1 1 
1 1 1 1 1 1 1 1 1 
1 1 1 1 1 1 1 1 1 
1 1 1 1 1 1 1 1 1 
1 1 1 1 1 1 1 1 1 
1 1 1 1 1 1 1 1 1 
1 1 1 1 1 1 1 1 1 
1 1 1 1 1 1 1 1 1 
1 1 1 1 1 1 1 1 1 
1 1 1 1 1 1 1 1 1 
1 1 1 1 1 1 1 1 1 
1 1 1 1 1 1 1 1 1 
1 1 1 1 1 1 1 1 1 
1 1 1 1 1 1 1 1 1 
1 1 1 1 1 1 1 1 1 
1 1 1 1 1 1 1 1 1 
1 1 1 1 1 1 1 1 1 
1 1 1 1 1 1 1 1 1 
1 1 1 1 1 1 1 1 1 
1 1 1 1 1 1 1 1 1 
1 1 1 1 1 1 1 1 1 
1 1 1 1 1 1 1 1 1 
1 1 1 1 1 1 1 1 1 
1 1 1 1 1 1 1 1 1 
1 1 1 1 1 1 1 1 1 
1 1 1 1 1 1 1 1 1 
1 1 1 1 1 1 1 1 1 
1 1 1 1 1 1 1 1 1 
1 1 1 1 1 1 1 1 1 
1 1 1 1 1 1 1 1 1 
1 1 1 1 1 1 1 1 1 
1 1 1 1 1 1 1 1 1 
1 1 1 1 1 1 1 1 1 
1 1 1 1 1 1 1 1 1 
1 1 1 1 1 1 1 1 1 
1 1 1 1 1 1 1 1 1 
1 1 1 1 1 1 1 1 1 
1 1 1 1 1 1 1 1 1 
1 1 1 1 1 1 1 1 1 
1 1 1 1 1 1 1 1 1 
1 1 1 1 1 1 1 1 1 
1 1 1 1 1 1 1 1 1 
1 1 1 1 1 1 1 1 1 
1 1 1 1 1 1 1 1 1 
1 1 1 1 1 1 1 1 1 
1 1 1 1 1 1 1 1 1 
1 1 1 1 1 1 1 1 1 
1 1 1 1 1 1 1 1 1 
1 1 1 1 1 1 1 1 1 
1 1 1 1 1 1 1 1 1 
1 1 1 1 1 1 1 1 1 
1 1 1 1 1 1 1 1 1 
1 1 1 1 1 1 1 1 1 
1 1 1 1 1 1 1 1 1 
1 1 1 1 1 1 1 1 1 
1 1 1 1 1 1 1 1 1 
1 1 1 1 1 1 1 1 1 
1 1 1 1 1 1 1 1 1 
1 1 1 1 1 1 1 1 1 
1 1 1 1 1 1 1 1 1 
1 1 1 1 1 1 1 1 1 
1 1 1 1 1 1 1 1 1 
1 1 1 1 1 1 1 1 1 
1 1 1 1 1 1 1 1 1 
1 1 1 1 1 1 1 1 1 
1 1 1 1 1 1 1 1 1 
1 1 1 1 1 1 1 1 1 
1 1 1 1 1 1 1 1 1 
1 1 1 1 1 1 1 1 1 
1 1 1 1 1 1 1 1 1 
1 1 1 1 1 1 1 1 1 
1 1 1 1 1 1 1 1 1 
1 1 1 1 1 1 1 1 1 
1 1 1 1 1 1 1 1 1 
1 1 1 1 1 1 1 1 1 
1 1 1 1 1 1 1 1 1 
1 1 1 1 1 1 1 1 1 
1 1 1 1 1 1 1 1 1 
1 1 1 1 1 1 1 1 1 
1 1 1 1 1 1 1 1 1 
1 1 1 1 1 1 1 1 1 
1 1 1 1 1 1 1 1 1 
1 1 1 1 1 1 1 1 1 
1 1 1 1 1 1 1 1 1 
1 1 1 1 1 1 1 1 1 
1 1 1 1 1 1 1 1 1 
1 1 1 1 1 1 1 1 1 
1 1 1 1 1 1 1 1 1 
1 1 1 1 1 1 1 1 1 
1 1 1 1 1 1 1 1 1 

i 3 1359 int
0 0 0 0 0 0 0 0 0 
0 0 0 0 0 0 0 0 0 
0 0 0 0 0 0 0 0 0 
0 0 0 0 0 0 0 0 0 
0 0 0 0 0 0 0 0 0 
0 0 0 0 0 0 0 0 0 
0 0 0 0 0 0 0 0 0 
0 0 0 0 0 0 0 0 0 
0 0 0 0 0 0 0 0 0 
0 0 0 0 0 0 0 0 0 
0 0 0 0 0 0 0 0 0 
0 0 0 0 0 0 0 0 0 
0 0 0 0 0 0 0 0 0 
0 0 0 0 0 0 0 0 0 
0 0 0 0 0 0 0 0 0 
0 0 0 0 0 0 0 0 0 
0 0 0 0 0 0 0 0 0 
0 0 0 0 0 0 0 0 0 
0 0 0 0 0 0 0 0 0 
0 0 0 0 0 0 0 0 0 
0 0 0 0 0 0 0 0 0 
0 0 0 0 0 0 0 0 0 
0 0 0 0 0 0 0 0 0 
0 0 0 0 0 0 0 0 0 
0 0 0 0 0 0 0 0 0 
0 0 0 0 0 0 0 0 0 
0 0 0 0 0 0 0 0 0 
0 0 0 0 0 0 0 0 0 
0 0 0 0 0 0 0 0 0 
0 0 0 0 0 0 0 0 0 
0 0 0 0 0 0 0 0 0 
0 0 0 0 0 0 0 0 0 
0 0 0 0 0 0 0 0 0 
0 0 0 0 0 0 0 0 0 
0 0 0 0 0 0 0 0 0 
0 0 0 0 0 0 0 0 0 
0 0 0 0 0 0 0 0 0 
0 0 0 0 0 0 0 0 0 
0 0 0 0 0 0 0 0 0 
0 0 0 0 0 0 0 0 0 
0 0 0 0 0 0 0 0 0 
0 0 0 0 0 0 0 0 0 
0 0 0 0 0 0 0 0 0 
0 0 0 0 0 0 0 0 0 
0 0 0 0 0 0 0 0 0 
0 0 0 0 0 0 0 0 0 
0 0 0 0 0 0 0 0 0 
0 0 0 0 0 0 0 0 0 
0 0 0 0 0 0 0 0 0 
0 0 0 0 0 0 0 0 0 
0 0 0 0 0 0 0 0 0 
0 0 0 0 0 0 0 0 0 
0 0 0 0 0 0 0 0 0 
0 0 0 0 0 0 0 0 0 
0 0 0 0 0 0 0 0 0 
0 0 0 0 0 0 0 0 0 
0 0 0 0 0 0 0 0 0 
0 0 0 0 0 0 0 0 0 
0 0 0 0 0 0 0 0 0 
0 0 0 0 0 0 0 0 0 
0 0 0 0 0 0 0 0 0 
0 0 0 0 0 0 0 0 0 
0 0 0 0 0 0 0 0 0 
0 0 0 0 0 0 0 0 0 
0 0 0 0 0 0 0 0 0 
0 0 0 0 0 0 0 0 0 
0 0 0 0 0 0 0 0 0 
0 0 0 0 0 0 0 0 0 
0 0 0 0 0 0 0 0 0 
0 0 0 0 0 0 0 0 0 
0 0 0 0 0 0 0 0 0 
0 0 0 0 0 0 0 0 0 
0 0 0 0 0 0 0 0 0 
0 0 0 0 0 0 0 0 0 
0 0 0 0 0 0 0 0 0 
0 0 0 0 0 0 0 0 0 
0 0 0 0 0 0 0 0 0 
0 0 0 0 0 0 0 0 0 
0 0 0 0 0 0 0 0 0 
0 0 0 0 0 0 0 0 0 
0 0 0 0 0 0 0 0 0 
0 0 0 0 0 0 0 0 0 
0 0 0 0 0 0 0 0 0 
0 0 0 0 0 0 0 0 0 
0 0 0 0 0 0 0 0 0 
0 0 0 0 0 0 0 0 0 
0 0 0 0 0 0 0 0 0 
0 0 0 0 0 0 0 0 0 
0 0 0 0 0 0 0 0 0 
0 0 0 0 0 0 0 0 0 
0 0 0 0 0 0 0 0 0 
0 0 0 0 0 0 0 0 0 
0 0 0 0 0 0 0 0 0 
0 0 0 0 0 0 0 0 0 
0 0 0 0 0 0 0 0 0 
0 0 0 0 0 0 0 0 0 
0 0 0 0 0 0 0 0 0 
0 0 0 0 0 0 0 0 0 
0 0 0 0 0 0 0 0 0 
0 0 0 0 0 0 0 0 0 
0 0 0 0 0 0 0 0 0 
0 0 0 0 0 0 0 0 0 
0 0 0 0 0 0 0 0 0 
0 0 0 0 0 0 0 0 0 
0 0 0 0 0 0 0 0 0 
0 0 0 0 0 0 0 0 0 
0 0 0 0 0 0 0 0 0 
0 0 0 0 0 0 0 0 0 
0 0 0 0 0 0 0 0 0 
0 0 0 0 0 0 0 0 0 
0 0 0 0 0 0 0 0 0 
0 0 0 0 0 0 0 0 0 
0 0 0 0 0 0 0 0 0 
0 0 0 0 0 0 0 0 0 
0 0 0 0 0 0 0 0 0 
0 0 0 0 0 0 0 0 0 
0 0 0 0 0 0 0 0 0 
0 0 0 0 0 0 0 0 0 
0 0 0 0 0 0 0 0 0 
0 0 0 0 0 0 0 0 0 
0 0 0 0 0 0 0 0 0 
0 0 0 0 0 0 0 0 0 
0 0 0 0 0 0 0 0 0 
0 0 0 0 0 0 0 0 0 
0 0 0 0 0 0 0 0 0 
0 0 0 0 0 0 0 0 0 
0 0 0 0 0 0 0 0 0 
0 0 0 0 0 0 0 0 0 
0 0 0 0 0 0 0 0 0 
0 0 0 0 0 0 0 0 0 
0 0 0 0 0 0 0 0 0 
0 0 0 0 0 0 0 0 0 
0 0 0 0 0 0 0 0 0 
0 0 0 0 0 0 0 0 0 
0 0 0 0 0 0 0 0 0 
0 0 0 0 0 0 0 0 0 
0 0 0 0 0 0 0 0 0 
0 0 0 0 0 0 0 0 0 
0 0 0 0 0 0 0 0 0 
0 0 0 0 0 0 0 0 0 
0 0 0 0 0 0 0 0 0 
0 0 0 0 0 0 0 0 0 
0 0 0 0 0 0 0 0 0 
0 0 0 0 0 0 0 0 0 
0 0 0 0 0 0 0 0 0 
0 0 0 0 0 0 0 0 0 
0 0 0 0 0 0 0 0 0 
0 0 0 0 0 0 0 0 0 
0 0 0 0 0 0 0 0 0 
0 0 0 0 0 0 0 0 0 
0 0 0 0 0 0 0 0 0 
0 0 0 0 0 0 0 0 0 
0 0 0 0 0 0 0 0 0 
0 0 0 0 0 0 0 0 0 
0 0 0 0 0 0 0 0 0 
0 0 0 0 0 0 0 0 0 
0 0 0 0 0 0 0 0 0 
0 0 0 0 0 0 0 0 0 
0 0 0 0 0 0 0 0 0 
0 0 0 0 0 0 0 0 0 
0 0 0 0 0 0 0 0 0 
0 0 0 0 0 0 0 0 0 
0 0 0 0 0 0 0 0 0 
0 0 0 0 0 0 0 0 0 
0 0 0 0 0 0 0 0 0 
0 0 0 0 0 0 0 0 0 
0 0 0 0 0 0 0 0 0 
0 0 0 0 0 0 0 0 0 
0 0 0 0 0 0 0 0 0 
0 0 0 0 0 0 0 0 0 
0 0 0 0 0 0 0 0 0 
0 0 0 0 0 0 0 0 0 
0 0 0 0 0 0 0 0 0 
0 0 0 0 0 0 0 0 0 
0 0 0 0 0 0 0 0 0 
0 0 0 0 0 0 0 0 0 
0 0 0 0 0 0 0 0 0 
0 0 0 0 0 0 0 0 0 
0 0 0 0 0 0 0 0 0 
0 0 0 0 0 0 0 0 0 
0 0 0 0 0 0 0 0 0 
0 0 0 0 0 0 0 0 0 
0 0 0 0 0 0 0 0 0 
0 0 0 0 0 0 0 0 0 
0 0 0 0 0 0 0 0 0 
0 0 0 0 0 0 0 0 0 
0 0 0 0 0 0 0 0 0 
0 0 0 0 0 0 0 0 0 
0 0 0 0 0 0 0 0 0 
0 0 0 0 0 0 0 0 0 
0 0 0 0 0 0 0 0 0 
0 0 0 0 0 0 0 0 0 
0 0 0 0 0 0 0 0 0 
0 0 0 0 0 0 0 0 0 
0 0 0 0 0 0 0 0 0 
0 0 0 0 0 0 0 0 0 
0 0 0 0 0 0 0 0 0 
0 0 0 0 0 0 0 0 0 
0 0 0 0 0 0 0 0 0 
0 0 0 0 0 0 0 0 0 
0 0 0 0 0 0 0 0 0 
0 0 0 0 0 0 0 0 0 
0 0 0 0 0 0 0 0 0 
0 0 0 0 0 0 0 0 0 
0 0 0 0 0 0 0 0 0 
0 0 0 0 0 0 0 0 0 
0 0 0 0 0 0 0 0 0 
0 0 0 0 0 0 0 0 0 
0 0 0 0 0 0 0 0 0 
0 0 0 0 0 0 0 0 0 
0 0 0 0 0 0 0 0 0 
0 0 0 0 0 0 0 0 0 
0 0 0 0 0 0 0 0 0 
0 0 0 0 0 0 0 0 0 
0 0 0 0 0 0 0 0 0 
0 0 0 0 0 0 0 0 0 
0 0 0 0 0 0 0 0 0 
0 0 0 0 0 0 0 0 0 
0 0 0 0 0 0 0 0 0 
0 0 0 0 0 0 0 0 0 
0 0 0 0 0 0 0 0 0 
0 0 0 0 0 0 0 0 0 
0 0 0 0 0 0 0 0 0 
0 0 0 0 0 0 0 0 0 
0 0 0 0 0 0 0 0 0 
0 0 0 0 0 0 0 0 0 
0 0 0 0 0 0 0 0 0 
0 0 0 0 0 0 0 0 0 
0 0 0 0 0 0 0 0 0 
0 0 0 0 0 0 0 0 0 
0 0 0 0 0 0 0 0 0 
0 0 0 0 0 0 0 0 0 
0 0 0 0 0 0 0 0 0 
0 0 0 0 0 0 0 0 0 
0 0 0 0 0 0 0 0 0 
0 0 0 0 0 0 0 0 0 
0 0 0 0 0 0 0 0 0 
0 0 0 0 0 0 0 0 0 
0 0 0 0 0 0 0 0 0 
0 0 0 0 0 0 0 0 0 
0 0 0 0 0 0 0 0 0 
0 0 0 0 0 0 0 0 0 
0 0 0 0 0 0 0 0 0 
0 0 0 0 0 0 0 0 0 
0 0 0 0 0 0 0 0 0 
0 0 0 0 0 0 0 0 0 
0 0 0 0 0 0 0 0 0 
0 0 0 0 0 0 0 0 0 
0 0 0 0 0 0 0 0 0 
0 0 0 0 0 0 0 0 0 
0 0 0 0 0 0 0 0 0 
0 0 0 0 0 0 0 0 0 
0 0 0 0 0 0 0 0 0 
0 0 0 0 0 0 0 0 0 
0 0 0 0 0 0 0 0 0 
0 0 0 0 0 0 0 0 0 
0 0 0 0 0 0 0 0 0 
0 0 0 0 0 0 0 0 0 
0 0 0 0 0 0 0 0 0 
0 0 0 0 0 0 0 0 0 
0 0 0 0 0 0 0 0 0 
0 0 0 0 0 0 0 0 0 
0 0 0 0 0 0 0 0 0 
0 0 0 0 0 0 0 0 0 
0 0 0 0 0 0 0 0 0 
0 0 0 0 0 0 0 0 0 
0 0 0 0 0 0 0 0 0 
0 0 0 0 0 0 0 0 0 
0 0 0 0 0 0 0 0 0 
0 0 0 0 0 0 0 0 0 
0 0 0 0 0 0 0 0 0 
0 0 0 0 0 0 0 0 0 
0 0 0 0 0 0 0 0 0 
0 0 0 0 0 0 0 0 0 
0 0 0 0 0 0 0 0 0 
0 0 0 0 0 0 0 0 0 
0 0 0 0 0 0 0 0 0 
0 0 0 0 0 0 0 0 0 
0 0 0 0 0 0 0 0 0 
0 0 0 0 0 0 0 0 0 
0 0 0 0 0 0 0 0 0 
0 0 0 0 0 0 0 0 0 
0 0 0 0 0 0 0 0 0 
0 0 0 0 0 0 0 0 0 
0 0 0 0 0 0 0 0 0 
0 0 0 0 0 0 0 0 0 
0 0 0 0 0 0 0 0 0 
0 0 0 0 0 0 0 0 0 
0 0 0 0 0 0 0 0 0 
0 0 0 0 0 0 0 0 0 
0 0 0 0 0 0 0 0 0 
0 0 0 0 0 0 0 0 0 
0 0 0 0 0 0 0 0 0 
0 0 0 0 0 0 0 0 0 
0 0 0 0 0 0 0 0 0 
0 0 0 0 0 0 0 0 0 
0 0 0 0 0 0 0 0 0 
0 0 0 0 0 0 0 0 0 
0 0 0 0 0 0 0 0 0 
0 0 0 0 0 0 0 0 0 
0 0 0 0 0 0 0 0 0 
0 0 0 0 0 0 0 0 0 
0 0 0 0 0 0 0 0 0 
0 0 0 0 0 0 0 0 0 
0 0 0 0 0 0 0 0 0 
0 0 0 0 0 0 0 0 0 
0 0 0 0 0 0 0 0 0 
0 0 0 0 0 0 0 0 0 
0 0 0 0 0 0 0 0 0 
0 0 0 0 0 0 0 0 0 
0 0 0 0 0 0 0 0 0 
0 0 0 0 0 0 0 0 0 
0 0 0 0 0 0 0 0 0 
0 0 0 0 0 0 0 0 0 
0 0 0 0 0 0 0 0 0 
0 0 0 0 0 0 0 0 0 
0 0 0 0 0 0 0 0 0 
0 0 0 0 0 0 0 0 0 
0 0 0 0 0 0 0 0 0 
0 0 0 0 0 0 0 0 0 
0 0 0 0 0 0 0 0 0 
0 0 0 0 0 0 0 0 0 
0 0 0 0 0 0 0 0 0 
0 0 0 0 0 0 0 0 0 
0 0 0 0 0 0 0 0 0 
0 0 0 0 0 0 0 0 0 
0 0 0 0 0 0 0 0 0 
0 0 0 0 0 0 0 0 0 
0 0 0 0 0 0 0 0 0 
0 0 0 0 0 0 0 0 0 
0 0 0 0 0 0 0 0 0 
0 0 0 0 0 0 0 0 0 
0 0 0 0 0 0 0 0 0 
0 0 0 0 0 0 0 0 0 
0 0 0 0 0 0 0 0 0 
0 0 0 0 0 0 0 0 0 
0 0 0 0 0 0 0 0 0 
0 0 0 0 0 0 0 0 0 
0 0 0 0 0 0 0 0 0 
0 0 0 0 0 0 0 0 0 
0 0 0 0 0 0 0 0 0 
0 0 0 0 0 0 0 0 0 
0 0 0 0 0 0 0 0 0 
0 0 0 0 0 0 0 0 0 
0 0 0 0 0 0 0 0 0 
0 0 0 0 0 0 0 0 0 
0 0 0 0 0 0 0 0 0 
0 0 0 0 0 0 0 0 0 
0 0 0 0 0 0 0 0 0 
0 0 0 0 0 0 0 0 0 
0 0 0 0 0 0 0 0 0 
0 0 0 0 0 0 0 0 0 
0 0 0 0 0 0 0 0 0 
0 0 0 0 0 0 0 0 0 
0 0 0 0 0 0 0 0 0 
0 0 0 0 0 0 0 0 0 
0 0 0 0 0 0 0 0 0 
0 0 0 0 0 0 0 0 0 
0 0 0 0 0 0 0 0 0 
0 0 0 0 0 0 0 0 0 
0 0 0 0 0 0 0 0 0 
0 0 0 0 0 0 0 0 0 
0 0 0 0 0 0 0 0 0 
0 0 0 0 0 0 0 0 0 
0 0 0 0 0 0 0 0 0 
0 0 0 0 0 0 0 0 0 
0 0 0 0 0 0 0 0 0 
0 0 0 0 0 0 0 0 0 
0 0 0 0 0 0 0 0 0 
0 0 0 0 0 0 0 0 0 
0 0 0 0 0 0 0 0 0 
0 0 0 0 0 0 0 0 0 
0 0 0 0 0 0 0 0 0 
0 0 0 0 0 0 0 0 0 
0 0 0 0 0 0 0 0 0 
0 0 0 0 0 0 0 0 0 
0 0 0 0 0 0 0 0 0 
0 0 0 0 0 0 0 0 0 
0 0 0 0 0 0 0 0 0 
0 0 0 0 0 0 0 0 0 
0 0 0 0 0 0 0 0 0 
0 0 0 0 0 0 0 0 0 
0 0 0 0 0 0 0 0 0 
0 0 0 0 0 0 0 0 0 
0 0 0 0 0 0 0 0 0 
0 0 0 0 0 0 0 0 0 
0 0 0 0 0 0 0 0 0 
0 0 0 0 0 0 0 0 0 
0 0 0 0 0 0 0 0 0 
0 0 0 0 0 0 0 0 0 
0 0 0 0 0 0 0 0 0 
0 0 0 0 0 0 0 0 0 
0 0 0 0 0 0 0 0 0 
0 0 0 0 0 0 0 0 0 
0 0 0 0 0 0 0 0 0 
0 0 0 0 0 0 0 0 0 
0 0 0 0 0 0 0 0 0 
0 0 0 0 0 0 0 0 0 
0 0 0 0 0 0 0 0 0 
0 0 0 0 0 0 0 0 0 
0 0 0 0 0 0 0 0 0 
0 0 0 0 0 0 0 0 0 
0 0 0 0 0 0 0 0 0 
0 0 0 0 0 0 0 0 0 
0 0 0 0 0 0 0 0 0 
0 0 0 0 0 0 0 0 0 
0 0 0 0 0 0 0 0 0 
0 0 0 0 0 0 0 0 0 
0 0 0 0 0 0 0 0 0 
0 0 0 0 0 0 0 0 0 
0 0 0 0 0 0 0 0 0 
0 0 0 0 0 0 0 0 0 
0 0 0 0 0 0 0 0 0 
0 0 0 0 0 0 0 0 0 
0 0 0 0 0 0 0 0 0 
0 0 0 0 0 0 0 0 0 
0 0 0 0 0 0 0 0 0 
0 0 0 0 0 0 0 0 0 
0 0 0 0 0 0 0 0 0 
0 0 0 0 0 0 0 0 0 
0 0 0 0 0 0 0 0 0 
0 0 0 0 0 0 0 0 0 
0 0 0 0 0 0 0 0 0 
0 0 0 0 0 0 0 0 0 
0 0 0 0 0 0 0 0 0 
0 0 0 0 0 0 0 0 0 
0 0 0 0 0 0 0 0 0 
0 0 0 0 0 0 0 0 0 
0 0 0 0 0 0 0 0 0 
0 0 0 0 0 0 0 0 0 
0 0 0 0 0 0 0 0 0 
0 0 0 0 0 0 0 0 0 
0 0 0 0 0 0 0 0 0 
0 0 0 0 0 0 0 0 0 
0 0 0 0 0 0 0 0 0 
0 0 0 0 0 0 0 0 0 
0 0 0 0 0 0 0 0 0 
0 0 0 0 0 0 0 0 0 
0 0 0 0 0 0 0 0 0 
0 0 0 0 0 0 0 0 0 
0 0 0 0 0 0 0 0 0 
0 0 0 0 0 0 0 0 0 
0 0 0 0 0 0 0 0 0 
0 0 0 0 0 0 0 0 0 
0 0 0 0 0 0 0 0 0 
0 0 0 0 0 0 0 0 0 
0 0 0 0 0 0 0 0 0 
0 0 0 0 0 0 0 0 0 
0 0 0 0 0 0 0 0 0 
0 0 0 0 0 0 0 0 0 
0 0 0 0 0 0 0 0 0 
0 0 0 0 0 0 0 0 0 
0 0 0 0 0 0 0 0 0 

v 3 1359 double
-0.0200485 -0.0154615 -0.254078 -0.320964 0.0591566 -0.171156 -0.419885 -0.867452 -8.98512e-15 
-0.248033 -0.511291 -5.37872e-15 -0.157743 -0.71324 9.05139e-15 -0.496695 -0.876978 -8.98513e-15 
-0.0570426 -0.615207 9.0514e-15 -0.813412 -0.894517 -8.98586e-15 -0.240844 -0.675412 -2.34714e-13 
-0.184408 -0.473079 7.63961e-15 -0.457603 -0.692803 9.05068e-15 0.120472 -0.578452 -5.37944e-15 
-0.486504 -0.715722 -5.37945e-15 -0.0104825 -0.55003 1.83708e-15 -0.238901 -0.614036 9.0514e-15 
-0.379755 -0.673755 -6.3907e-06 -0.20623 -0.751114 -1.77155e-15 0.0232227 -0.719271 -5.37871e-15 
0.0635841 -0.630042 5.44424e-15 -0.439853 -0.424569 -7.46583e-15 -0.233677 -0.458002 -1.77081e-15 
-0.18641 -0.590235 -8.98513e-15 -0.113778 -0.365571 5.44352e-15 -0.816184 -0.572349 1.83636e-15 
-0.147606 -0.613783 1.83636e-15 -0.46422 -0.358403 5.44423e-15 -0.223073 -0.621431 5.44423e-15 
-0.12974 -0.582787 1.83635e-15 -0.485345 -0.528198 -8.98586e-15 -0.155522 -0.593877 -8.98585e-15 
-0.656209 -0.340464 -5.37945e-15 -0.271225 -0.505264 5.44352e-15 0.0950887 -0.574461 -5.37943e-15 
0.119936 -0.583492 -4.4746e-10 0.0579649 -0.594559 5.44425e-15 -0.495957 -0.44606 9.0514e-15 
-0.0364449 -0.449537 5.44424e-15 -0.0330949 -0.433616 1.83709e-15 -0.194565 -0.576322 -8.98512e-15 
0.032406 -0.613372 5.44352e-15 -0.530421 -0.538379 5.44352e-15 -0.115904 -0.396303 4.05855e-09 
-0.000561323 -0.548499 -2.54232e-07 -0.415247 -0.411509 -5.37871e-15 -0.083883 -0.446812 -8.98513e-15 
-0.112645 -0.327858 -1.77154e-15 -0.0147235 -0.503796 -1.77155e-15 -0.549848 -0.383741 9.05066e-15 
-0.793175 -0.406086 -8.98586e-15 -0.712714 -0.33318 -2.74925e-14 -0.50081 -0.259436 -9.46046e-05 
-0.159603 -0.332925 -1.77155e-15 -0.0245307 -0.432338 1.27607e-05 -0.525943 -0.303857 -8.98585e-15 
-0.881851 -0.385967 1.83635e-15 -0.439766 -0.49083 -8.98586e-15 -0.358154 -0.252984 -3.95055e-12 
-0.260945 -0.242928 -8.98512e-15 -0.269512 -0.222504 -5.37944e-15 -0.0813456 -0.243875 -1.77155e-15 
-0.544113 -0.396061 -5.37871e-15 -0.24089 -0.203807 -5.37872e-15 -0.527721 -0.111603 6.22732e-11 
-0.667376 -0.17767 9.05066e-15 -0.130546 -0.234789 1.83635e-15 -0.790081 -0.265579 -1.77155e-15 
-0.079331 -0.254173 -1.77154e-15 -0.531493 -0.252255 1.83636e-15 -0.539031 -0.316707 -1.77081e-15 
-0.869268 -0.454462 -1.77155e-15 -0.0944741 -0.296123 3.65174e-12 -0.0956571 -0.171436 9.0514e-15 
-0.544434 -0.119805 -5.37945e-15 -0.0949948 -0.0628629 5.44423e-15 -0.669796 -0.235399 1.83637e-15 