# vtk DataFile Version 4.0
Generated by LIGGGHTS
ASCII
DATASET POLYDATA
POINTS 1500 float
-0.0161688 -0.0483063 0.00536176 -0.0833193 -0.0478247 0.00483319 -0.078839 -0.0468911 0.00399926 
-0.0237488 -0.0453433 0.00534791 -0.0176136 -0.0310101 0.00521771 -0.0557225 -0.0284283 0.00435296 
-0.0933548 -0.0137677 0.00437387 -0.0205981 -0.0926799 0.00677954 -0.0576173 -0.0743248 0.00619941 
-0.0541902 -0.0747107 0.00746321 -0.0331572 -0.0728078 0.00581357 -0.0680228 -0.0596033 0.00862163 
-0.0539983 -0.0496909 0.008253 -0.0366121 -0.040279 0.00691376 -0.0179164 -0.0214176 0.00728575 
-0.0745948 -0.0153957 0.00834218 -0.0805862 -0.012136 0.00678633 -0.0824067 -0.00913099 0.00735623 
-0.0142914 -0.0962173 0.011451 -0.0405719 -0.0913576 0.00905463 -0.0591823 -0.0766434 0.0092325 
-0.0470134 -0.0536112 0.00939387 -0.00368025 -0.0539438 0.0104534 -0.0924694 -0.0329229 0.0103133 
-0.0193034 -0.0323038 0.0107954 -0.0132761 -0.0311791 0.0110818 -0.0237946 -0.0163041 0.0115891 
-0.0467192 -0.00982527 0.0104874 -0.0319516 -0.0109858 0.0100309 -0.0260294 -0.0760942 0.0123451 
-0.0198883 -0.0633021 0.0120139 -0.00930277 -0.0516699 0.0122293 -0.0783156 -0.0495159 0.0124204 
-0.00622636 -0.0464162 0.0120477 -0.0607983 -0.037586 0.0130303 -0.0135078 -0.0249958 0.013331 
-0.0296081 -0.023884 0.0119678 -0.0574056 -0.0151307 0.0136139 -0.00442071 -0.0989228 0.0333997 
-0.00524128 -0.0901406 0.0336312 -0.0769777 -0.0636221 0.0332228 -0.0637862 -0.0550124 0.0335701 
-0.00689026 -0.00462272 0.0335378 -0.0150532 -0.0985232 0.0349488 -0.0446172 -0.0816735 0.0343311 
-0.0565941 -0.0767697 0.0360575 -0.0339429 -0.0781498 0.036533 -0.0663279 -0.0735632 0.0352361 
-0.0430273 -0.0599319 0.0354584 -0.0457808 -0.0371265 0.0344206 -0.057454 -0.0292782 0.0351172 
-0.0201064 -0.0277318 0.0340723 -0.0287209 -0.0129342 0.0343618 -0.0831625 -0.0117564 0.0339579 
-0.0725359 -0.0110351 0.0362519 -0.00821128 -0.00694132 0.0366784 -0.0215032 -0.00422246 0.036253 
-0.0714441 -0.0606144 0.0383154 -0.0596378 -0.03212 0.0388845 -0.0126751 -0.0305562 0.0371955 
-0.00320885 -0.0311748 0.0374365 -0.00269085 -0.0250817 0.0380738 -0.0708942 -0.0196133 0.0389579 
-0.0237943 -0.011123 0.0385197 -0.0662525 -0.00639891 0.0383024 -0.0438723 -0.0617437 0.0403073 
-0.0147415 -0.0611842 0.0406088 -0.0119091 -0.0556677 0.0422868 -0.0369579 -0.051647 0.0398987 
-0.0829208 -0.0496712 0.0405839 -0.0710139 -0.0311185 0.0420807 -0.00341688 -0.02743 0.0413958 
-0.0169165 -0.0160779 0.04078 -0.087387 -0.0134533 0.041962 -0.0381098 -0.0115973 0.041383 
-0.0335877 -0.00813431 0.041612 -0.0694438 -0.041935 0.0428386 -0.0613287 -0.0506631 0.0616817 
-0.00577946 -0.0353659 0.0615983 -0.0149635 -0.091854 0.0620485 -0.0435275 -0.0664894 0.0622841 
-0.002134 -0.0660668 0.0626951 -0.0361374 -0.0608252 0.0622341 -0.0631793 -0.0542847 0.0647415 
-0.0807125 -0.0348532 0.0633045 -0.0160788 -0.0360256 0.0628499 -0.051968 -0.0265824 0.0639823 
-0.0544132 -0.0221924 0.0623996 -0.0157032 -0.0239641 0.0646244 -0.0670915 -0.0063709 0.0635307 
-0.0609612 -0.0745018 0.0659793 -0.0663333 -0.0638866 0.0669382 -0.0501021 -0.0652314 0.0666973 
-0.0172455 -0.045472 0.0663348 -0.0590909 -0.0402183 0.0661283 -0.0260391 -0.0394328 0.0663121 
-0.0160196 -0.0419014 0.067404 -0.0342915 -0.0378855 0.0668685 -0.0277814 -0.0222849 0.066821 
-0.0279952 -0.0151699 0.0650195 -0.0301895 -0.0945026 0.0705515 -0.0369722 -0.0915995 0.0697652 
-0.0484842 -0.0740125 0.0682929 -0.0613357 -0.0692756 0.0695869 -0.0718489 -0.0647002 0.0694993 
-0.0508875 -0.0663065 0.0697279 -0.00425197 -0.0627788 0.0686912 -0.0239162 -0.0591555 0.068474 
-0.0396117 -0.0544431 0.0685405 -0.081005 -0.0504682 0.0692379 -0.031686 -0.0461313 0.0681685 
-0.0313403 -0.0357064 0.0692822 -0.0423533 -0.0311614 0.0681239 -0.0191782 -0.0280843 0.069875 
-0.0343197 -0.0104605 0.0701346 -0.0472436 -0.0238651 0.071002 -0.0194795 -0.092556 0.0894177 
-0.0275346 -0.0738796 0.0889021 -0.0840036 -0.0483182 0.0898065 -0.0544386 -0.0497461 0.0899454 
-0.0523733 -0.0379773 0.0898712 -0.00501098 -0.0194672 0.0896576 -0.0215096 -0.0124165 0.0897836 
-0.0141485 -0.0932871 0.0906044 -0.0507101 -0.0841241 0.0909203 -0.0678748 -0.0719268 0.0908382 
-0.0663214 -0.064358 0.0918038 -0.0559979 -0.0575567 0.0927499 -0.0448175 -0.0468839 0.0904779 
-0.0126643 -0.0481329 0.0913101 -0.0468697 -0.0394753 0.0921278 -0.00425638 -0.0370542 0.0912357 
-0.0406155 -0.0239934 0.0924793 -0.0289892 -0.0211327 0.0905585 -0.0104476 -0.0922258 0.0943149 
-0.0381144 -0.0890063 0.0953025 -0.0278447 -0.0858948 0.0949242 -0.0173134 -0.0858773 0.0942986 
-0.0047232 -0.082753 0.0952185 -0.0396013 -0.0789344 0.0931436 -0.0244218 -0.0564246 0.0954453 
-0.0307698 -0.0476786 0.094852 -0.0448233 -0.0446673 0.09585 -0.0114907 -0.0246821 0.0949751 
-0.00751019 -0.0238431 0.0952094 -0.0801632 -0.0024415 0.0948419 -0.0342217 -0.0639028 0.0968959 
-0.0203582 -0.0599576 0.0975022 -0.044806 -0.0537933 0.097878 -0.0334167 -0.0345334 0.0980559 
-0.0238668 -0.0300174 0.0980146 -0.0750591 -0.0178147 0.0971658 -0.0127694 -0.0151134 0.097152 
-0.090249 -0.0143399 0.097169 -0.00772435 -0.0231566 0.11508 -0.0117509 -0.0968575 0.116034 
-0.00419383 -0.0857427 0.116638 -0.0166874 -0.0651975 0.117086 -0.0421106 -0.0531973 0.115805 
-0.0121346 -0.0467226 0.117784 -0.0723532 -0.0395068 0.115317 -0.0525282 -0.0418385 0.116492 
-0.0870493 -0.0371325 0.115892 -0.0710558 -0.0343718 0.115794 -0.0608338 -0.03405 0.116554 
-0.0254062 -0.00209237 0.117809 -0.0109232 -0.0863541 0.119122 -0.0594796 -0.0738835 0.11846 
-0.0629602 -0.0715202 0.120523 -0.0390951 -0.0711099 0.120027 -0.0507562 -0.0602448 0.121061 
-0.0110344 -0.0554139 0.120227 -0.0262599 -0.0509272 0.12103 -0.0358568 -0.0453532 0.119384 
-0.0172328 -0.0324053 0.120793 -0.0950038 -0.0287171 0.11963 -0.0101998 -0.0281215 0.12058 
-0.0704895 -0.0177157 0.119626 -0.0857624 -0.00933904 0.118318 -0.0892847 -0.00760011 0.120948 
-0.0176895 -0.00725609 0.119137 -0.0402395 -0.00576241 0.119564 -0.0219839 -0.0833349 0.123437 
-0.0140805 -0.0517235 0.122753 -0.0669927 -0.0461491 0.12166 -0.0809984 -0.0405437 0.122676 
-0.0249147 -0.0407586 0.121557 -0.00597579 -0.0351229 0.123466 -0.0556035 -0.0280068 0.123479 
-0.0285128 -0.015257 0.121945 -0.00320212 -0.0180822 0.123672 -0.0781759 -0.00172019 0.123334 
-0.0646042 -0.00298797 0.122561 -0.0227484 -0.03229 0.139913 -0.0393875 -0.0849045 0.140734 
-0.059581 -0.078365 0.141638 -0.0368998 -0.075586 0.142237 -0.0609134 -0.0720759 0.141749 
-0.0760077 -0.0611337 0.142167 -0.00738143 -0.0597361 0.141119 -0.0131168 -0.0543456 0.141 
-0.0412535 -0.0483123 0.141206 -0.0218807 -0.0483181 0.141453 -0.0827239 -0.0403152 0.141885 
-0.00226896 -0.0344006 0.142601 -0.0691933 -0.0321216 0.142953 -0.0162749 -0.0315563 0.142963 
-0.00442224 -0.0245667 0.140434 -0.0504029 -0.0212287 0.140543 -0.0700554 -0.0203355 0.141843 
-0.0289875 -0.0924232 0.143956 -0.0286421 -0.0874017 0.143701 -0.0288795 -0.0784039 0.146271 
-0.053262 -0.0744535 0.145632 -0.0152357 -0.0658331 0.143977 -0.0722173 -0.0560337 0.143844 
-0.0218573 -0.0560158 0.143823 -0.0058521 -0.0562889 0.144877 -0.0664983 -0.0362026 0.143996 
-0.00799786 -0.0199527 0.145129 -0.0314519 -0.0115455 0.145142 -0.0207995 -0.0772848 0.147067 
-0.0305984 -0.067984 0.148904 -0.0353699 -0.0620467 0.147793 -0.0712179 -0.0598039 0.147211 
-0.0751089 -0.0550562 0.146761 -0.0830696 -0.0511345 0.147821 -0.0280985 -0.0507291 0.149211 
-0.065182 -0.0140542 0.148807 -0.0842036 -0.0091279 0.148399 -0.0197828 -0.0900816 0.149515 
-0.0525979 -0.0126555 0.14954 -0.0772808 -0.0592248 0.164742 -0.0726334 -0.0498244 0.164029 
-0.0882755 -0.0466527 0.164749 -0.034506 -0.0423035 0.164441 -0.0871075 -0.0151305 0.164128 
-0.0105616 -0.00892479 0.163983 -0.0362099 -0.0806016 0.166765 -0.0491626 -0.0750031 0.166117 
-0.0698914 -0.065423 0.16751 -0.0114331 -0.0556712 0.167299 -0.0707594 -0.053362 0.16832 
-0.0529157 -0.0534161 0.167494 -0.0364998 -0.052673 0.166378 -0.0638751 -0.0482696 0.167179 
-0.0365292 -0.0463424 0.166264 -0.0775412 -0.0352398 0.166371 -0.0720076 -0.0310205 0.167669 
-0.0784155 -0.0289436 0.16833 -0.00662244 -0.00343123 0.167008 -0.00297289 -0.0653383 0.169821 
-0.036548 -0.0627554 0.170825 -0.0171091 -0.0529382 0.170568 -0.0739776 -0.0408897 0.17056 
-0.0116762 -0.0417176 0.169064 -0.0736123 -0.00164538 0.168483 -0.0157184 -0.0787242 0.172175 
-0.00729345 -0.0809734 0.171865 -0.0621926 -0.0712093 0.172463 -0.0213157 -0.0531752 0.172402 
-0.0281457 -0.0454633 0.173757 -0.0375821 -0.0420309 0.172505 -0.0305669 -0.0373061 0.173516 
-0.0121461 -0.0386698 0.17158 -0.0418358 -0.0350689 0.173645 -0.0185477 -0.0313572 0.171896 
-0.0207367 -0.0213792 0.171775 -0.0143288 -0.0235798 0.173285 -0.0988044 -0.0048382 0.172323 
-0.037727 -0.0781042 0.187416 -0.0515722 -0.073933 0.187928 -0.0277958 -0.064324 0.187767 
-0.074448 -0.0481875 0.188339 -0.0341609 -0.0414581 0.188572 -0.0373854 -0.036596 0.1903 
-0.0374447 -0.0325562 0.18987 -0.0765938 -0.0127975 0.188299 -0.0724945 -0.0143552 0.190354 
-0.00580187 -0.012089 0.189165 -0.0432194 -0.0881034 0.191815 -0.0509716 -0.0794334 0.193396 
-0.061669 -0.0710808 0.191626 -0.0638923 -0.0372324 0.190547 -0.0458402 -0.0363566 0.192514 
-0.0325003 -0.0333406 0.191568 -0.0109436 -0.0283954 0.192991 -0.0786234 -0.0230231 0.192282 
-0.0256514 -0.02288 0.192621 -0.0667056 -0.0203816 0.191703 -0.0967939 -0.0159423 0.19294 
-0.0886545 -0.0165863 0.1906 -0.0332489 -0.0140985 0.191793 -0.0553882 -0.00992087 0.19312 
-0.0156071 -0.008362 0.193102 -0.0403517 -0.090583 0.194261 -0.0393153 -0.0722508 0.195198 
-0.0599728 -0.0629806 0.195668 -0.07706 -0.0470832 0.194438 -0.00577415 -0.0461782 0.195456 
-0.0728888 -0.041745 0.196254 -0.00246475 -0.0249788 0.195335 -0.0465888 -0.0185061 0.193996 
-0.0748626 -0.0151909 0.195738 -0.0412099 -0.0146434 0.195991 -0.0883802 -0.00663562 0.194628 
-0.0195303 -0.0459691 0.196826 -0.00542685 -0.00902624 0.196724 -0.0637156 -0.0688268 0.212237 
-0.0484119 -0.0581469 0.211888 -0.0728956 -0.0559756 0.211222 -0.0463644 -0.0461945 0.210278 
[...]
POINT_DATA 1500
FIELD FieldData 7
id 1 1500 int
27 25 23 34 2 35 36 10 11 
3 7 16 4 19 22 32 26 6 
30 24 38 15 28 20 13 5 1 
21 29 33 9 8 37 18 12 14 
31 17 152 167 155 178 160 153 176 
157 151 154 172 181 156 168 158 179 
175 170 189 186 162 183 161 180 171 
159 188 187 173 185 163 174 169 184 
166 177 182 164 165 309 326 319 329 
308 314 301 337 305 338 317 322 333 
307 328 320 335 306 327 311 339 324 
321 316 318 330 336 304 332 310 323 
312 315 303 325 313 331 334 302 455 
471 458 451 466 476 459 470 480 486 
463 477 457 469 467 484 483 461 465 
464 472 473 460 462 475 474 454 488 
479 452 487 478 482 453 481 456 485 
468 626 638 636 630 615 628 612 611 
629 603 619 625 633 618 623 635 634 
613 620 601 632 602 609 622 616 627 
605 624 610 606 631 617 621 614 639 
607 637 608 604 761 786 771 787 757 
755 789 776 764 751 767 753 788 765 
768 766 778 772 785 762 782 784 783 
758 756 752 770 769 759 754 775 779 
774 777 780 781 763 760 773 913 927 
915 905 925 917 908 924 922 920 918 
914 934 910 928 926 931 930 904 909 
936 937 929 932 907 916 902 919 912 
935 923 901 933 903 911 921 938 906 
1083 1056 1051 1085 1076 1072 1086 1077 1074 
1087 1082 1071 1088 1055 1060 1080 1068 1079 
1075 1057 1067 1084 1078 1058 1054 1069 1073 
1081 1065 1066 1064 1061 1052 1062 1053 1059 
1063 1070 1209 1211 1203 1220 1223 1238 1222 
1201 1216 1226 1204 1205 1210 1213 1217 1218 
1207 1219 1206 1228 1214 1221 1227 1233 1236 
1215 1208 1235 1225 1237 1224 1202 1232 1229 
1212 1230 1231 1234 1352 1359 1353 1365 1355 
1354 1377 1381 1363 1372 1356 1376 1358 1374 
1368 1364 1383 1362 1388 1366 1370 1385 1371 
1378 1357 1375 1373 1380 1387 1361 1351 1382 
1369 1367 1386 1360 1384 1379 55 45 43 
56 62 50 76 68 75 60 40 66 
44 72 53 41 73 58 47 52 61 
54 49 64 67 48 63 42 46 59 
39 57 70 65 71 51 74 69 214 
209 224 200 201 192 226 203 198 217 
212 219 205 222 220 218 204 216 194 
197 202 225 206 193 221 207 208 213 
199 215 190 223 195 211 196 191 210 
350 347 374 361 344 355 373 348 354 
371 357 343 368 375 369 340 345 353 
349 351 367 365 352 356 370 364 358 
362 341 363 359 346 372 366 342 360 
376 510 504 517 495 515 521 501 493 
525 506 524 508 494 492 519 489 496 
513 491 523 514 499 516 518 497 520 
512 490 500 509 505 502 522 498 507 
511 503 660 675 670 672 662 671 676 
640 642 656 663 666 668 647 645 655 
649 654 661 658 659 650 665 664 646 
644 667 651 657 652 653 674 677 641 
648 643 669 673 813 825 802 800 810 
818 792 808 801 819 823 822 795 826 
806 817 807 798 824 805 804 791 790 
811 815 820 821 797 816 809 812 799 
796 793 814 794 803 973 944 950 967 
943 964 972 954 949 965 961 940 941 
974 939 970 971 959 968 958 975 951 
947 952 963 969 962 946 957 942 945 
960 956 966 953 955 948 1093 1115 1112 
1121 1119 1120 1113 1091 1096 1111 1106 1099 
1124 1103 1116 1125 1098 1095 1105 1101 1110 
1107 1117 1104 1089 1108 1094 1114 1123 1122 
1090 1102 1092 1109 1118 1097 1100 1242 1252 
1261 1251 1271 1275 1241 1268 1257 1246 1247 
1260 1259 1245 1276 1269 1248 1263 1258 1239 
1240 1272 1243 1264 1244 1273 1270 1267 1262 
1255 1265 1266 1256 1249 1253 1250 1254 1274 
1410 1402 1404 1415 1394 1399 1396 1417 1395 
1400 1416 1425 1390 1411 1406 1418 1389 1426 
1393 1401 1421 1392 1424 1405 1420 1413 1409 
1422 1412 1398 1391 1403 1407 1414 1423 1408 
1397 1419 107 98 102 94 111 101 96 
112 87 95 109 106 105 79 104 90 
84 77 85 99 80 110 78 93 92 
100 97 89 103 81 86 108 83 91 
88 82 246 254 237 255 249 258 253 
231 261 233 239 244 251 242 232 252 
262 245 263 257 234 256 235 238 250 
230 229 241 227 228 247 260 240 259 
243 248 236 398 391 405 386 406 394 
382 404 380 399 411 408 378 409 401 
385 384 395 412 410 400 387 402 396 
392 393 379 388 390 383 377 381 413 
389 403 407 397 559 531 547 544 560 
557 551 550 558 555 540 554 538 548 
532 542 536 556 534 552 541 543 545 
529 535 527 549 526 546 553 530 561 
528 533 537 539 701 695 693 682 681 
686 687 713 703 696 680 707 689 704 
685 698 706 683 691 699 679 690 684 
711 705 712 700 694 709 702 710 692 
678 708 697 688 828 829 851 854 833 
848 853 830 852 837 844 855 834 860 
846 849 856 842 838 839 862 841 847 
835 827 858 831 863 861 850 836 840 
843 857 859 832 845 982 1006 995 993 
991 979 1008 994 984 1001 999 1003 988 
1007 1011 1012 992 997 996 986 985 978 
981 980 977 1002 1005 989 1010 990 1000 
998 987 983 976 1009 1004 1133 1152 1159 
1136 1142 1139 1151 1141 1145 1128 1147 1127 
1148 1163 1153 1132 1143 1138 1154 1156 1146 
1160 1149 1131 1162 1135 1157 1150 1144 1126 
1155 1134 1129 1158 1140 1137 1130 1161 1294 
1306 1277 1297 1303 1309 1286 1302 1310 1280 
1301 1304 1281 1278 1307 1295 1289 1283 1311 
1279 1299 1298 1292 1284 1293 1285 1296 1300 
1287 1290 1308 1288 1305 1282 1312 1291 1451 
1457 1440 1431 1444 1443 1434 1458 1427 1430 
1433 1428 1448 1438 1432 1449 1454 1461 1429 
1439 1450 1452 1455 1445 1435 1453 1460 1437 
1459 1462 1441 1456 1447 1436 1446 1442 142 
147 117 116 144 136 140 122 125 126 
121 115 114 146 143 131 148 134 128 
139 150 149 133 119 137 132 118 129 
124 145 120 141 138 113 135 130 123 
127 292 271 299 274 277 280 270 284 
287 300 268 286 265 267 293 264 291 
279 275 281 295 283 276 278 282 266 
289 296 272 297 273 288 269 290 294 
285 298 443 447 415 439 433 424 445 
434 421 426 417 419 422 442 425 435 
414 430 440 420 429 416 438 449 431 
423 428 444 432 427 436 418 450 446 
448 441 437 573 590 593 587 579 567 
585 591 597 570 568 582 572 588 564 
578 571 584 589 562 598 600 596 586 
566 563 569 599 577 576 581 592 580 
595 575 565 583 574 594 729 717 742 
739 719 733 720 744 723 747 736 728 
730 746 745 722 740 714 738 731 741 
718 724 748 725 749 734 743 737 750 
721 726 735 716 715 727 732 883 877 
866 880 893 900 896 872 897 891 889 
864 879 885 878 869 899 881 894 868 
875 888 890 886 884 876 898 882 892 
867 871 874 873 887 870 895 865 1027 
1022 1047 1024 1029 1049 1025 1035 1050 1014 
1015 1030 1048 1023 1019 1041 1043 1028 1018 
1034 1013 1042 1031 1044 1017 1032 1021 1045 
1039 1026 1037 1038 1036 1033 1016 1020 1040 
1046 1181 1174 1191 1193 1180 1189 1185 1182 
1198 1199 1166 1183 1197 1184 1187 1167 1196 
1186 1168 1164 1165 1178 1173 1170 1192 1169 
1195 1188 1175 1194 1172 1177 1176 1179 1190 
1171 1200 1331 1327 1343 1325 1314 1321 1313 
1316 1317 1334 1345 1341 1329 1344 1336 1323 
1319 1326 1320 1322 1340 1350 1346 1332 1330 
1328 1337 1338 1342 1339 1324 1349 1335 1315 
1318 1333 1347 1348 1478 1471 1480 1479 1493 
1490 1489 1497 1484 1474 1498 1470 1487 1481 
1473 1485 1466 1486 1469 1468 1483 1495 1491 
1496 1475 1467 1482 1494 1500 1472 1499 1465 
1488 1463 1476 1492 1477 1464 
type 1 1500 int
1 1 1 1 1 1 1 1 1 
1 1 1 1 1 1 1 1 1 
1 1 1 1 1 1 1 1 1 
1 1 1 1 1 1 1 1 1 
1 1 1 1 1 1 1 1 1 
1 1 1 1 1 1 1 1 1 
1 1 1 1 1 1 1 1 1 
1 1 1 1 1 1 1 1 1 
1 1 1 1 1 1 1 1 1 
1 1 1 1 1 1 1 1 1 
1 1 1 1 1 1 1 1 1 
1 1 1 1 1 1 1 1 1 
1 1 1 1 1 1 1 1 1 
1 1 1 1 1 1 1 1 1 
1 1 1 1 1 1 1 1 1 
1 1 1 1 1 1 1 1 1 
1 1 1 1 1 1 1 1 1 
1 1 1 1 1 1 1 1 1 
1 1 1 1 1 1 1 1 1 
1 1 1 1 1 1 1 1 1 
1 1 1 1 1 1 1 1 1 
1 1 1 1 1 1 1 1 1 
1 1 1 1 1 1 1 1 1 
1 1 1 1 1 1 1 1 1 
1 1 1 1 1 1 1 1 1 
1 1 1 1 1 1 1 1 1 
1 1 1 1 1 1 1 1 1 
1 1 1 1 1 1 1 1 1 
1 1 1 1 1 1 1 1 1 
1 1 1 1 1 1 1 1 1 
1 1 1 1 1 1 1 1 1 
1 1 1 1 1 1 1 1 1 
1 1 1 1 1 1 1 1 1 
1 1 1 1 1 1 1 1 1 
1 1 1 1 1 1 1 1 1 
1 1 1 1 1 1 1 1 1 
1 1 1 1 1 1 1 1 1 
1 1 1 1 1 1 1 1 1 
1 1 1 1 1 1 1 1 1 
1 1 1 1 1 1 1 1 1 
1 1 1 1 1 1 1 1 1 
1 1 1 1 1 1 1 1 1 
1 1 1 1 1 1 1 1 1 
1 1 1 1 1 1 1 1 1 
1 1 1 1 1 1 1 1 1 
1 1 1 1 1 1 1 1 1 
1 1 1 1 1 1 1 1 1 
1 1 1 1 1 1 1 1 1 
1 1 1 1 1 1 1 1 1 
1 1 1 1 1 1 1 1 1 
1 1 1 1 1 1 1 1 1 
1 1 1 1 1 1 1 1 1 
1 1 1 1 1 1 1 1 1 
1 1 1 1 1 1 1 1 1 
1 1 1 1 1 1 1 1 1 
1 1 1 1 1 1 1 1 1 
1 1 1 1 1 1 1 1 1 
1 1 1 1 1 1 1 1 1 
1 1 1 1 1 1 1 1 1 
1 1 1 1 1 1 1 1 1 
1 1 1 1 1 1 1 1 1 
1 1 1 1 1 1 1 1 1 
1 1 1 1 1 1 1 1 1 
1 1 1 1 1 1 1 1 1 
1 1 1 1 1 1 1 1 1 
1 1 1 1 1 1 1 1 1 
1 1 1 1 1 1 1 1 1 
1 1 1 1 1 1 1 1 1 
1 1 1 1 1 1 1 1 1 
1 1 1 1 1 1 1 1 1 
1 1 1 1 1 1 1 1 1 
1 1 1 1 1 1 1 1 1 
1 1 1 1 1 1 1 1 1 
1 1 1 1 1 1 1 1 1 
1 1 1 1 1 1 1 1 1 
1 1 1 1 1 1 1 1 1 
1 1 1 1 1 1 1 1 1 
1 1 1 1 1 1 1 1 1 
1 1 1 1 1 1 1 1 1 
1 1 1 1 1 1 1 1 1 
1 1 1 1 1 1 1 1 1 
1 1 1 1 1 1 1 1 1 
1 1 1 1 1 1 1 1 1 
1 1 1 1 1 1 1 1 1 
1 1 1 1 1 1 1 1 1 
1 1 1 1 1 1 1 1 1 
1 1 1 1 1 1 1 1 1 
1 1 1 1 1 1 1 1 1 
1 1 1 1 1 1 1 1 1 
1 1 1 1 1 1 1 1 1 
1 1 1 1 1 1 1 1 1 
1 1 1 1 1 1 1 1 1 
1 1 1 1 1 1 1 1 1 
1 1 1 1 1 1 1 1 1 
1 1 1 1 1 1 1 1 1 
1 1 1 1 1 1 1 1 1 
1 1 1 1 1 1 1 1 1 
1 1 1 1 1 1 1 1 1 
1 1 1 1 1 1 1 1 1 
1 1 1 1 1 1 1 1 1 
1 1 1 1 1 1 1 1 1 
1 1 1 1 1 1 1 1 1 
1 1 1 1 1 1 1 1 1 
1 1 1 1 1 1 1 1 1 
1 1 1 1 1 1 1 1 1 
1 1 1 1 1 1 1 1 1 
1 1 1 1 1 1 1 1 1 
1 1 1 1 1 1 1 1 1 
1 1 1 1 1 1 1 1 1 
1 1 1 1 1 1 1 1 1 
1 1 1 1 1 1 1 1 1 
1 1 1 1 1 1 1 1 1 
1 1 1 1 1 1 1 1 1 
1 1 1 1 1 1 1 1 1 
1 1 1 1 1 1 1 1 1 
1 1 1 1 1 1 1 1 1 
1 1 1 1 1 1 1 1 1 
1 1 1 1 1 1 1 1 1 
1 1 1 1 1 1 1 1 1 
1 1 1 1 1 1 1 1 1 
1 1 1 1 1 1 1 1 1 
1 1 1 1 1 1 1 1 1 
1 1 1 1 1 1 1 1 1 
1 1 1 1 1 1 1 1 1 
1 1 1 1 1 1 1 1 1 
1 1 1 1 1 1 1 1 1 
1 1 1 1 1 1 1 1 1 
1 1 1 1 1 1 1 1 1 
1 1 1 1 1 1 1 1 1 
1 1 1 1 1 1 1 1 1 
1 1 1 1 1 1 1 1 1 
1 1 1 1 1 1 1 1 1 
1 1 1 1 1 1 1 1 1 
1 1 1 1 1 1 1 1 1 
1 1 1 1 1 1 1 1 1 
1 1 1 1 1 1 1 1 1 
1 1 1 1 1 1 1 1 1 
1 1 1 1 1 1 1 1 1 
1 1 1 1 1 1 1 1 1 
1 1 1 1 1 1 1 1 1 
1 1 1 1 1 1 1 1 1 
1 1 1 1 1 1 1 1 1 
1 1 1 1 1 1 1 1 1 
1 1 1 1 1 1 1 1 1 
1 1 1 1 1 1 1 1 1 
1 1 1 1 1 1 1 1 1 
1 1 1 1 1 1 1 1 1 
1 1 1 1 1 1 1 1 1 
1 1 1 1 1 1 1 1 1 
1 1 1 1 1 1 1 1 1 
1 1 1 1 1 1 1 1 1 
1 1 1 1 1 1 1 1 1 
1 1 1 1 1 1 1 1 1 
1 1 1 1 1 1 1 1 1 
1 1 1 1 1 1 1 1 1 
1 1 1 1 1 1 1 1 1 
1 1 1 1 1 1 1 1 1 
1 1 1 1 1 1 1 1 1 
1 1 1 1 1 1 1 1 1 
1 1 1 1 1 1 1 1 1 
1 1 1 1 1 1 1 1 1 
1 1 1 1 1 1 1 1 1 
1 1 1 1 1 1 1 1 1 
1 1 1 1 1 1 1 1 1 
1 1 1 1 1 1 1 1 1 
1 1 1 1 1 1 1 1 1 
1 1 1 1 1 1 
i 3 1500 int
0 0 0 0 0 0 0 0 0 
0 0 0 0 0 0 0 0 0 
0 0 0 0 0 0 0 0 0 
0 0 0 0 0 0 0 0 0 
0 0 0 0 0 0 0 0 0 
0 0 0 0 0 0 0 0 0 
0 0 0 0 0 0 0 0 0 
0 0 0 0 0 0 0 0 0 
0 0 0 0 0 0 0 0 0 
0 0 0 0 0 0 0 0 0 
0 0 0 0 0 0 0 0 0 
0 0 0 0 0 0 0 0 0 
0 0 0 0 0 0 0 0 0 
0 0 0 0 0 0 0 0 0 
0 0 0 0 0 0 0 0 0 
0 0 0 0 0 0 0 0 0 
0 0 0 0 0 0 0 0 0 
0 0 0 0 0 0 0 0 0 
0 0 0 0 0 0 0 0 0 
0 0 0 0 0 0 0 0 0 
0 0 0 0 0 0 0 0 0 
0 0 0 0 0 0 0 0 0 
0 0 0 0 0 0 0 0 0 
0 0 0 0 0 0 0 0 0 
0 0 0 0 0 0 0 0 0 
0 0 0 0 0 0 0 0 0 
0 0 0 0 0 0 0 0 0 
0 0 0 0 0 0 0 0 0 
0 0 0 0 0 0 0 0 0 
0 0 0 0 0 0 0 0 0 
0 0 0 0 0 0 0 0 0 
0 0 0 0 0 0 0 0 0 
0 0 0 0 0 0 0 0 0 
0 0 0 0 0 0 0 0 0 
0 0 0 0 0 0 0 0 0 
0 0 0 0 0 0 0 0 0 
0 0 0 0 0 0 0 0 0 
0 0 0 0 0 0 0 0 0 
0 0 0 0 0 0 0 0 0 
0 0 0 0 0 0 0 0 0 
0 0 0 0 0 0 0 0 0 
0 0 0 0 0 0 0 0 0 
0 0 0 0 0 0 0 0 0 
0 0 0 0 0 0 0 0 0 
0 0 0 0 0 0 0 0 0 
0 0 0 0 0 0 0 0 0 
0 0 0 0 0 0 0 0 0 
0 0 0 0 0 0 0 0 0 
0 0 0 0 0 0 0 0 0 
0 0 0 0 0 0 0 0 0 
0 0 0 0 0 0 0 0 0 
0 0 0 0 0 0 0 0 0 
0 0 0 0 0 0 0 0 0 
0 0 0 0 0 0 0 0 0 
0 0 0 0 0 0 0 0 0 
0 0 0 0 0 0 0 0 0 
0 0 0 0 0 0 0 0 0 
0 0 0 0 0 0 0 0 0 
0 0 0 0 0 0 0 0 0 
0 0 0 0 0 0 0 0 0 
0 0 0 0 0 0 0 0 0 
0 0 0 0 0 0 0 0 0 
0 0 0 0 0 0 0 0 0 
0 0 0 0 0 0 0 0 0 
0 0 0 0 0 0 0 0 0 
0 0 0 0 0 0 0 0 0 
0 0 0 0 0 0 0 0 0 
0 0 0 0 0 0 0 0 0 
0 0 0 0 0 0 0 0 0 
0 0 0 0 0 0 0 0 0 
0 0 0 0 0 0 0 0 0 
0 0 0 0 0 0 0 0 0 
0 0 0 0 0 0 0 0 0 
0 0 0 0 0 0 0 0 0 
0 0 0 0 0 0 0 0 0 
0 0 0 0 0 0 0 0 0 
0 0 0 0 0 0 0 0 0 
0 0 0 0 0 0 0 0 0 
0 0 0 0 0 0 0 0 0 
0 0 0 0 0 0 0 0 0 
0 0 0 0 0 0 0 0 0 
0 0 0 0 0 0 0 0 0 
0 0 0 0 0 0 0 0 0 
0 0 0 0 0 0 0 0 0 
0 0 0 0 0 0 0 0 0 
0 0 0 0 0 0 0 0 0 
0 0 0 0 0 0 0 0 0 
0 0 0 0 0 0 0 0 0 
0 0 0 0 0 0 0 0 0 
0 0 0 0 0 0 0 0 0 
0 0 0 0 0 0 0 0 0 
0 0 0 0 0 0 0 0 0 
0 0 0 0 0 0 0 0 0 
0 0 0 0 0 0 0 0 0 
0 0 0 0 0 0 0 0 0 
0 0 0 0 0 0 0 0 0 
0 0 0 0 0 0 0 0 0 
0 0 0 0 0 0 0 0 0 
0 0 0 0 0 0 0 0 0 
0 0 0 0 0 0 0 0 0 
0 0 0 0 0 0 0 0 0 
0 0 0 0 0 0 0 0 0 
0 0 0 0 0 0 0 0 0 
0 0 0 0 0 0 0 0 0 
0 0 0 0 0 0 0 0 0 
0 0 0 0 0 0 0 0 0 
0 0 0 0 0 0 0 0 0 
0 0 0 0 0 0 0 0 0 
0 0 0 0 0 0 0 0 0 
0 0 0 0 0 0 0 0 0 
0 0 0 0 0 0 0 0 0 
0 0 0 0 0 0 0 0 0 
0 0 0 0 0 0 0 0 0 
0 0 0 0 0 0 0 0 0 
0 0 0 0 0 0 0 0 0 
0 0 0 0 0 0 0 0 0 
0 0 0 0 0 0 0 0 0 
0 0 0 0 0 0 0 0 0 
0 0 0 0 0 0 0 0 0 
0 0 0 0 0 0 0 0 0 
0 0 0 0 0 0 0 0 0 
0 0 0 0 0 0 0 0 0 
0 0 0 0 0 0 0 0 0 
0 0 0 0 0 0 0 0 0 
0 0 0 0 0 0 0 0 0 
0 0 0 0 0 0 0 0 0 
0 0 0 0 0 0 0 0 0 
0 0 0 0 0 0 0 0 0 
0 0 0 0 0 0 0 0 0 
0 0 0 0 0 0 0 0 0 
0 0 0 0 0 0 0 0 0 
0 0 0 0 0 0 0 0 0 
0 0 0 0 0 0 0 0 0 
0 0 0 0 0 0 0 0 0 
0 0 0 0 0 0 0 0 0 
0 0 0 0 0 0 0 0 0 
0 0 0 0 0 0 0 0 0 
0 0 0 0 0 0 0 0 0 
0 0 0 0 0 0 0 0 0 
0 0 0 0 0 0 0 0 0 
0 0 0 0 0 0 0 0 0 
0 0 0 0 0 0 0 0 0 
0 0 0 0 0 0 0 0 0 
0 0 0 0 0 0 0 0 0 
0 0 0 0 0 0 0 0 0 
0 0 0 0 0 0 0 0 0 
0 0 0 0 0 0 0 0 0 
0 0 0 0 0 0 0 0 0 
0 0 0 0 0 0 0 0 0 
0 0 0 0 0 0 0 0 0 
0 0 0 0 0 0 0 0 0 
0 0 0 0 0 0 0 0 0 
0 0 0 0 0 0 0 0 0 
0 0 0 0 0 0 0 0 0 
0 0 0 0 0 0 0 0 0 
0 0 0 0 0 0 0 0 0 
0 0 0 0 0 0 0 0 0 
0 0 0 0 0 0 0 0 0 
0 0 0 0 0 0 0 0 0 
0 0 0 0 0 0 0 0 0 
0 0 0 0 0 0 0 0 0 
0 0 0 0 0 0 0 0 0 
0 0 0 0 0 0 0 0 0 
0 0 0 0 0 0 0 0 0 
0 0 0 0 0 0 0 0 0 
0 0 0 0 0 0 0 0 0 
0 0 0 0 0 0 0 0 0 
0 0 0 0 0 0 0 0 0 
0 0 0 0 0 0 0 0 0 
0 0 0 0 0 0 0 0 0 
0 0 0 0 0 0 0 0 0 
0 0 0 0 0 0 0 0 0 
0 0 0 0 0 0 0 0 0 
0 0 0 0 0 0 0 0 0 
0 0 0 0 0 0 0 0 0 
0 0 0 0 0 0 0 0 0 
0 0 0 0 0 0 0 0 0 
0 0 0 0 0 0 0 0 0 
0 0 0 0 0 0 0 0 0 
0 0 0 0 0 0 0 0 0 
0 0 0 0 0 0 0 0 0 
0 0 0 0 0 0 0 0 0 
0 0 0 0 0 0 0 0 0 
0 0 0 0 0 0 0 0 0 
0 0 0 0 0 0 0 0 0 
0 0 0 0 0 0 0 0 0 
0 0 0 0 0 0 0 0 0 
0 0 0 0 0 0 0 0 0 
0 0 0 0 0 0 0 0 0 
0 0 0 0 0 0 0 0 0 
0 0 0 0 0 0 0 0 0 
0 0 0 0 0 0 0 0 0 
0 0 0 0 0 0 0 0 0 
0 0 0 0 0 0 0 0 0 
0 0 0 0 0 0 0 0 0 
0 0 0 0 0 0 0 0 0 
0 0 0 0 0 0 0 0 0 
0 0 0 0 0 0 0 0 0 
0 0 0 0 0 0 0 0 0 
0 0 0 0 0 0 0 0 0 
0 0 0 0 0 0 0 0 0 
0 0 0 0 0 0 0 0 0 
0 0 0 0 0 0 0 0 0 
0 0 0 0 0 0 0 0 0 
0 0 0 0 0 0 0 0 0 
0 0 0 0 0 0 0 0 0 
0 0 0 0 0 0 0 0 0 
0 0 0 0 0 0 0 0 0 
0 0 0 0 0 0 0 0 0 
0 0 0 0 0 0 0 0 0 
0 0 0 0 0 0 0 0 0 
0 0 0 0 0 0 0 0 0 
0 0 0 0 0 0 0 0 0 
0 0 0 0 0 0 0 0 0 
0 0 0 0 0 0 0 0 0 
0 0 0 0 0 0 0 0 0 
0 0 0 0 0 0 0 0 0 
0 0 0 0 0 0 0 0 0 
0 0 0 0 0 0 0 0 0 
0 0 0 0 0 0 0 0 0 
0 0 0 0 0 0 0 0 0 
0 0 0 0 0 0 0 0 0 
0 0 0 0 0 0 0 0 0 
0 0 0 0 0 0 0 0 0 
0 0 0 0 0 0 0 0 0 
0 0 0 0 0 0 0 0 0 
0 0 0 0 0 0 0 0 0 
0 0 0 0 0 0 0 0 0 
0 0 0 0 0 0 0 0 0 
0 0 0 0 0 0 0 0 0 
0 0 0 0 0 0 0 0 0 
0 0 0 0 0 0 0 0 0 
0 0 0 0 0 0 0 0 0 
0 0 0 0 0 0 0 0 0 
0 0 0 0 0 0 0 0 0 
0 0 0 0 0 0 0 0 0 
0 0 0 0 0 0 0 0 0 
0 0 0 0 0 0 0 0 0 
0 0 0 0 0 0 0 0 0 
0 0 0 0 0 0 0 0 0 
0 0 0 0 0 0 0 0 0 
0 0 0 0 0 0 0 0 0 
0 0 0 0 0 0 0 0 0 
0 0 0 0 0 0 0 0 0 
0 0 0 0 0 0 0 0 0 
0 0 0 0 0 0 0 0 0 
0 0 0 0 0 0 0 0 0 
0 0 0 0 0 0 0 0 0 
0 0 0 0 0 0 0 0 0 
0 0 0 0 0 0 0 0 0 
0 0 0 0 0 0 0 0 0 
0 0 0 0 0 0 0 0 0 
0 0 0 0 0 0 0 0 0 
0 0 0 0 0 0 0 0 0 
0 0 0 0 0 0 0 0 0 
0 0 0 0 0 0 0 0 0 
0 0 0 0 0 0 0 0 0 
0 0 0 0 0 0 0 0 0 
0 0 0 0 0 0 0 0 0 
0 0 0 0 0 0 0 0 0 
0 0 0 0 0 0 0 0 0 
0 0 0 0 0 0 0 0 0 
0 0 0 0 0 0 0 0 0 
0 0 0 0 0 0 0 0 0 
0 0 0 0 0 0 0 0 0 
0 0 0 0 0 0 0 0 0 
0 0 0 0 0 0 0 0 0 
0 0 0 0 0 0 0 0 0 
0 0 0 0 0 0 0 0 0 
0 0 0 0 0 0 0 0 0 
0 0 0 0 0 0 0 0 0 
0 0 0 0 0 0 0 0 0 
0 0 0 0 0 0 0 0 0 
0 0 0 0 0 0 0 0 0 
0 0 0 0 0 0 0 0 0 
0 0 0 0 0 0 0 0 0 
0 0 0 0 0 0 0 0 0 
0 0 0 0 0 0 0 0 0 
0 0 0 0 0 0 0 0 0 
0 0 0 0 0 0 0 0 0 
0 0 0 0 0 0 0 0 0 
0 0 0 0 0 0 0 0 0 
0 0 0 0 0 0 0 0 0 
0 0 0 0 0 0 0 0 0 
0 0 0 0 0 0 0 0 0 
0 0 0 0 0 0 0 0 0 
0 0 0 0 0 0 0 0 0 
0 0 0 0 0 0 0 0 0 
0 0 0 0 0 0 0 0 0 
0 0 0 0 0 0 0 0 0 
0 0 0 0 0 0 0 0 0 
0 0 0 0 0 0 0 0 0 
0 0 0 0 0 0 0 0 0 
0 0 0 0 0 0 0 0 0 
0 0 0 0 0 0 0 0 0 
0 0 0 0 0 0 0 0 0 
0 0 0 0 0 0 0 0 0 
0 0 0 0 0 0 0 0 0 
0 0 0 0 0 0 0 0 0 
0 0 0 0 0 0 0 0 0 
0 0 0 0 0 0 0 0 0 
0 0 0 0 0 0 0 0 0 
0 0 0 0 0 0 0 0 0 
0 0 0 0 0 0 0 0 0 
0 0 0 0 0 0 0 0 0 
0 0 0 0 0 0 0 0 0 
0 0 0 0 0 0 0 0 0 
0 0 0 0 0 0 0 0 0 
0 0 0 0 0 0 0 0 0 
0 0 0 0 0 0 0 0 0 
0 0 0 0 0 0 0 0 0 
0 0 0 0 0 0 0 0 0 
0 0 0 0 0 0 0 0 0 
0 0 0 0 0 0 0 0 0 
0 0 0 0 0 0 0 0 0 
0 0 0 0 0 0 0 0 0 
0 0 0 0 0 0 0 0 0 
0 0 0 0 0 0 0 0 0 
0 0 0 0 0 0 0 0 0 
0 0 0 0 0 0 0 0 0 
0 0 0 0 0 0 0 0 0 
0 0 0 0 0 0 0 0 0 
0 0 0 0 0 0 0 0 0 
0 0 0 0 0 0 0 0 0 
0 0 0 0 0 0 0 0 0 
0 0 0 0 0 0 0 0 0 
0 0 0 0 0 0 0 0 0 
0 0 0 0 0 0 0 0 0 
0 0 0 0 0 0 0 0 0 
0 0 0 0 0 0 0 0 0 
0 0 0 0 0 0 0 0 0 
0 0 0 0 0 0 0 0 0 
0 0 0 0 0 0 0 0 0 
0 0 0 0 0 0 0 0 0 
0 0 0 0 0 0 0 0 0 
0 0 0 0 0 0 0 0 0 
0 0 0 0 0 0 0 0 0 
0 0 0 0 0 0 0 0 0 
0 0 0 0 0 0 0 0 0 
0 0 0 0 0 0 0 0 0 
0 0 0 0 0 0 0 0 0 
0 0 0 0 0 0 0 0 0 
0 0 0 0 0 0 0 0 0 
0 0 0 0 0 0 0 0 0 
0 0 0 0 0 0 0 0 0 
0 0 0 0 0 0 0 0 0 
0 0 0 0 0 0 0 0 0 
0 0 0 0 0 0 0 0 0 
0 0 0 0 0 0 0 0 0 
0 0 0 0 0 0 0 0 0 
0 0 0 0 0 0 0 0 0 
0 0 0 0 0 0 0 0 0 
0 0 0 0 0 0 0 0 0 
0 0 0 0 0 0 0 0 0 
0 0 0 0 0 0 0 0 0 
0 0 0 0 0 0 0 0 0 
0 0 0 0 0 0 0 0 0 
0 0 0 0 0 0 0 0 0 
0 0 0 0 0 0 0 0 0 
0 0 0 0 0 0 0 0 0 
0 0 0 0 0 0 0 0 0 
0 0 0 0 0 0 0 0 0 
0 0 0 0 0 0 0 0 0 
0 0 0 0 0 0 0 0 0 
0 0 0 0 0 0 0 0 0 
0 0 0 0 0 0 0 0 0 
0 0 0 0 0 0 0 0 0 
0 0 0 0 0 0 0 0 0 
0 0 0 0 0 0 0 0 0 
0 0 0 0 0 0 0 0 0 
0 0 0 0 0 0 0 0 0 
0 0 0 0 0 0 0 0 0 
0 0 0 0 0 0 0 0 0 
0 0 0 0 0 0 0 0 0 
0 0 0 0 0 0 0 0 0 
0 0 0 0 0 0 0 0 0 
0 0 0 0 0 0 0 0 0 
0 0 0 0 0 0 0 0 0 
0 0 0 0 0 0 0 0 0 
0 0 0 0 0 0 0 0 0 
0 0 0 0 0 0 0 0 0 
0 0 0 0 0 0 0 0 0 
0 0 0 0 0 0 0 0 0 
0 0 0 0 0 0 0 0 0 
0 0 0 0 0 0 0 0 0 
0 0 0 0 0 0 0 0 0 
0 0 0 0 0 0 0 0 0 
0 0 0 0 0 0 0 0 0 
0 0 0 0 0 0 0 0 0 
0 0 0 0 0 0 0 0 0 
0 0 0 0 0 0 0 0 0 
0 0 0 0 0 0 0 0 0 
0 0 0 0 0 0 0 0 0 
0 0 0 0 0 0 0 0 0 
0 0 0 0 0 0 0 0 0 
0 0 0 0 0 0 0 0 0 
0 0 0 0 0 0 0 0 0 
0 0 0 0 0 0 0 0 0 
0 0 0 0 0 0 0 0 0 
0 0 0 0 0 0 0 0 0 
0 0 0 0 0 0 0 0 0 
0 0 0 0 0 0 0 0 0 
0 0 0 0 0 0 0 0 0 
0 0 0 0 0 0 0 0 0 
0 0 0 0 0 0 0 0 0 
0 0 0 0 0 0 0 0 0 
0 0 0 0 0 0 0 0 0 
0 0 0 0 0 0 0 0 0 
0 0 0 0 0 0 0 0 0 
0 0 0 0 0 0 0 0 0 
0 0 0 0 0 0 0 0 0 
0 0 0 0 0 0 0 0 0 
0 0 0 0 0 0 0 0 0 
0 0 0 0 0 0 0 0 0 
0 0 0 0 0 0 0 0 0 
0 0 0 0 0 0 0 0 0 
0 0 0 0 0 0 0 0 0 
0 0 0 0 0 0 0 0 0 
0 0 0 0 0 0 0 0 0 
0 0 0 0 0 0 0 0 0 
0 0 0 0 0 0 0 0 0 
0 0 0 0 0 0 0 0 0 
0 0 0 0 0 0 0 0 0 
0 0 0 0 0 0 0 0 0 
0 0 0 0 0 0 0 0 0 
0 0 0 0 0 0 0 0 0 
0 0 0 0 0 0 0 0 0 
0 0 0 0 0 0 0 0 0 
0 0 0 0 0 0 0 0 0 
0 0 0 0 0 0 0 0 0 
0 0 0 0 0 0 0 0 0 
0 0 0 0 0 0 0 0 0 
0 0 0 0 0 0 0 0 0 
0 0 0 0 0 0 0 0 0 
0 0 0 0 0 0 0 0 0 
0 0 0 0 0 0 0 0 0 
0 0 0 0 0 0 0 0 0 
0 0 0 0 0 0 0 0 0 
0 0 0 0 0 0 0 0 0 
0 0 0 0 0 0 0 0 0 
0 0 0 0 0 0 0 0 0 
0 0 0 0 0 0 0 0 0 
0 0 0 0 0 0 0 0 0 
0 0 0 0 0 0 0 0 0 
0 0 0 0 0 0 0 0 0 
0 0 0 0 0 0 0 0 0 
0 0 0 0 0 0 0 0 0 
0 0 0 0 0 0 0 0 0 
0 0 0 0 0 0 0 0 0 
0 0 0 0 0 0 0 0 0 
0 0 0 0 0 0 0 0 0 
0 0 0 0 0 0 0 0 0 
0 0 0 0 0 0 0 0 0 
0 0 0 0 0 0 0 0 0 
0 0 0 0 0 0 0 0 0 
0 0 0 0 0 0 0 0 0 
0 0 0 0 0 0 0 0 0 
0 0 0 0 0 0 0 0 0 
0 0 0 0 0 0 0 0 0 
0 0 0 0 0 0 0 0 0 
0 0 0 0 0 0 0 0 0 
0 0 0 0 0 0 0 0 0 
0 0 0 0 0 0 0 0 0 
0 0 0 0 0 0 0 0 0 
0 0 0 0 0 0 0 0 0 
0 0 0 0 0 0 0 0 0 
0 0 0 0 0 0 0 0 0 
0 0 0 0 0 0 0 0 0 
0 0 0 0 0 0 0 0 0 
0 0 0 0 0 0 0 0 0 
0 0 0 0 0 0 0 0 0 
0 0 0 0 0 0 0 0 0 
0 0 0 0 0 0 0 0 0 
0 0 0 0 0 0 0 0 0 
0 0 0 0 0 0 0 0 0 
0 0 0 0 0 0 0 0 0 
0 0 0 0 0 0 0 0 0 
0 0 0 0 0 0 0 0 0 
0 0 0 0 0 0 0 0 0 
0 0 0 0 0 0 0 0 0 
0 0 0 0 0 0 0 0 0 
0 0 0 0 0 0 0 0 0 
0 0 0 0 0 0 0 0 0 
0 0 0 0 0 0 0 0 0 
0 0 0 0 0 0 0 0 0 
0 0 0 0 0 0 0 0 0 
0 0 0 0 0 0 0 0 0 
0 0 0 0 0 0 0 0 0 
0 0 0 0 0 0 0 0 0 
0 0 0 0 0 0 0 0 0 
0 0 0 0 0 0 0 0 0 
0 0 0 0 0 0 0 0 0 
0 0 0 0 0 0 0 0 0 
0 0 0 0 0 0 0 0 0 
0 0 0 0 0 0 0 0 0 
0 0 0 0 0 0 0 0 0 
0 0 0 0 0 0 0 0 0 
0 0 0 0 0 0 0 0 0 
0 0 0 0 0 0 0 0 0 
0 0 0 0 0 0 0 0 0 

v 3 1500 double
0 0 -2.96195 0 0 -2.96195 0 0 -2.96195 
0 0 -2.96195 0 0 -2.96195 0 0 -2.96195 
0 0 -2.96195 0 0 -2.96195 0 0 -2.96195 
0 0 -2.96195 0 0 -2.96195 0 0 -2.96195 
0 0 -2.96195 0 0 -2.96195 0 0 -2.96195 
0 0 -2.96195 0 0 -2.96195 0 0 -2.96195 
0 0 -2.96195 0 0 -2.96195 0 0 -2.96195 
0 0 -2.96195 0 0 -2.96195 0 0 -2.96195 
0 0 -2.96195 0 0 -2.96195 0 0 -2.96195 
0 0 -2.96195 0 0 -2.96195 0 0 -2.96195 
0 0 -2.96195 0 0 -2.96195 0 0 -2.96195 
0 0 -2.96195 0 0 -2.96195 0 0 -2.96195 
0 0 -2.96195 0 0 -2.96195 0 0 -2.86385 
0 0 -2.86385 0 0 -2.86385 0 0 -2.86385 
0 0 -2.86385 0 0 -2.86385 0 0 -2.86385 
0 0 -2.86385 0 0 -2.86385 0 0 -2.86385 