# vtk DataFile Version 4.0
Generated by LIGGGHTS
ASCII
DATASET POLYDATA
POINTS 1462 float
-9.25127e-05 -0.0298479 0.00149966 -0.128811 -0.33511 0.00149966 -0.145282 -0.325778 0.00149966 
-0.0704564 -0.303775 0.00149966 -0.09965 -0.282713 0.00149966 -0.0817046 -0.280687 0.00149966 
-0.0426624 -0.281088 0.00149966 -0.166156 -0.270798 0.00149966 -0.0822482 -0.266177 0.00149966 
-0.321574 -0.263724 0.00149966 -0.0766569 -0.259771 0.00149966 -0.162159 -0.245889 0.00149966 
-0.0375273 -0.244816 0.00149966 -0.00580659 -0.24182 0.00149966 -0.156458 -0.236755 0.00149966 
-0.120531 -0.230804 0.00149966 -0.0775034 -0.229325 0.00149966 -0.313104 -0.225139 0.00149966 
-0.158331 -0.225532 0.00149966 -0.115643 -0.216972 0.00149966 -0.0864818 -0.211804 0.00149966 
-0.00154702 -0.213402 0.00149966 -0.220775 -0.198704 0.00149966 -0.00873865 -0.201798 0.00149966 
-0.0945022 -0.198343 0.00149966 -0.242703 -0.190927 0.00149966 -0.0579708 -0.189007 0.00149966 
-0.153804 -0.185511 0.00149966 -0.0179707 -0.182175 0.00149966 -0.00770736 -0.182953 0.00149966 
-0.0691122 -0.179681 0.00150025 -0.163283 -0.174072 0.00149966 -0.108203 -0.176595 0.00149966 
-0.0636327 -0.171126 0.00149966 -0.0519665 -0.164696 0.00165183 -0.0114011 -0.165878 0.00149966 
-0.059411 -0.161303 0.00149966 -0.244145 -0.150946 0.00149966 -0.131592 -0.154703 0.00149966 
-0.0703669 -0.0194007 0.103326 -0.0853516 -0.13598 0.00149966 -0.0469468 -0.140661 0.00149966 
-0.0391341 -0.140397 0.00149966 -0.0259379 -0.138049 0.00149966 -0.23639 -0.133058 0.00149966 
-0.140182 -0.129912 0.00149966 -0.00543481 -0.131995 0.00149966 -0.111006 -0.120462 0.00150285 
-0.230499 -0.122978 0.00149966 -0.0319264 -0.118397 0.00149966 -0.00244536 -0.12037 0.00149966 
-0.181632 -0.110006 0.00149966 -0.0577576 -0.104652 0.00149966 -0.0028941 -0.101313 0.00149966 
-0.246181 -0.0975884 0.00149966 -0.155583 -0.0969608 0.00149966 -0.0565485 -0.0991737 0.00149966 
-0.290929 -0.0889097 0.00149966 -0.0424229 -0.0899347 0.00149966 -0.0645656 -0.0878798 0.00149966 
-0.0964009 -0.0870831 0.00149966 -0.159956 -0.077984 0.00176262 -0.101808 -0.0744195 0.00149993 
-0.0130765 -0.07771 0.00149966 -0.0407389 -0.0719739 0.00149966 -0.00672835 -0.0750666 0.00149966 
-0.291507 -0.0718125 0.00149966 -0.238807 -0.0704784 0.00149966 -0.0484415 -0.0669517 0.00149966 
-0.0389842 -0.0675744 0.00149966 -0.0294489 -0.0672048 0.00149966 -0.00810747 -0.0638172 0.00149966 
-0.10878 -0.0641613 0.00149966 -0.0956958 -0.0635548 0.00149966 -0.0921314 -0.0633715 0.00149966 
-0.0436502 -0.0639446 0.00149966 -0.0653385 -0.0566673 0.00149966 -0.297381 -0.0564869 0.00149966 
-0.0142478 -0.0547168 0.00149966 -0.228263 -0.053801 0.00149966 -0.200254 -0.0504975 0.00149966 
-0.070061 -0.0445546 0.00149966 -0.00084477 -0.0431923 0.00149966 -0.238477 -0.0411633 0.00149966 
-0.0326406 -0.0434813 0.00149966 -0.0151923 -0.0419588 0.00151071 -0.00976794 -0.0441943 0.00149966 
-0.122817 -0.0375058 0.00149966 -0.0726969 -0.0423726 0.00149966 -0.0529648 -0.0398931 0.00149966 
-0.0315031 -0.0387984 0.00149966 -0.0995958 -0.034299 0.00149966 -0.0910643 -0.0336751 0.00149966 
-0.077931 -0.033818 0.00149966 -0.0845304 -0.0298547 0.00237438 -0.0374443 -0.0317774 0.00149966 
-0.0107822 -0.0291745 0.00149966 -0.239995 -0.0290166 0.00149966 -0.128237 -0.0273192 0.00149966 
-0.00929823 -0.0251015 0.00149966 -0.00667185 -0.0268 0.00149966 -0.00284793 -0.0283947 0.00149966 
-0.0545915 -0.0273711 0.00209726 -0.0159611 -0.0236298 0.00204856 -0.0447797 -0.0205505 0.00149966 
-0.00374722 -0.0200247 0.00149966 -0.000188182 -0.0193322 0.00149966 -0.102824 -0.0143788 0.00149966 
-0.0972657 -0.0172871 0.00149966 -0.0451096 -0.0145222 0.00149966 -0.0203853 -0.0150639 0.00149967 
-0.00976937 -0.0149466 0.00149966 -0.00677094 -0.0175096 0.00149966 -0.174115 -0.0164899 0.00149966 
-0.0843304 -0.0116827 0.00149966 -0.0662219 -0.0149407 0.00149966 -0.0628701 -0.0108323 0.00149966 
-0.0550152 -0.0149784 0.00149966 -0.0428143 -0.0119624 0.00149966 -0.0746228 -0.0112464 0.00149966 
-0.0163291 -0.00955749 0.00149966 -0.00156803 -0.0105723 0.00198775 -0.0413093 -0.00854347 0.00149967 
-0.237749 -0.00666095 0.00149966 -0.0188896 -0.00378805 0.00149966 -0.0119112 -0.00641802 0.00149966 
-0.134233 -0.00227843 0.00149966 -0.10613 -0.00309789 0.00149966 -0.0216852 -0.00146263 0.00149966 
-0.0365662 -0.307467 0.00288458 -0.0296171 -0.309304 0.00296752 -0.156169 -0.266779 0.00414359 
-0.164279 -0.241813 0.00150653 -0.300256 -0.233522 0.00221699 -0.172354 -0.216816 0.00490077 
-0.00737678 -0.21572 0.0026562 -0.293976 -0.209796 0.00192145 -0.121233 -0.205137 0.00209024 
-0.0192037 -0.198894 0.00211687 -0.014674 -0.195886 0.00440782 -0.254372 -0.195309 0.00220773 
-0.065451 -0.181912 0.00659054 -0.0838982 -0.177635 0.00731712 -0.0558544 -0.16608 0.00234168 
-0.0490542 -0.165938 0.00371142 -0.0377005 -0.155144 0.0015861 -0.0939888 -0.153576 0.005051 
-0.0820046 -0.14831 0.00168355 -0.00259777 -0.149594 0.00688245 -0.185943 -0.144991 0.00298853 
-0.158879 -0.136399 0.00749848 -0.230939 -0.129325 0.00288009 -0.035554 -0.132294 0.00306901 
-0.111313 -0.116995 0.00171657 -0.0339204 -0.114588 0.00252114 -0.00401956 -0.0974755 0.00152217 
-0.19703 -0.0879984 0.00204871 -0.323052 -0.0856577 0.00157739 -0.0990475 -0.0723654 0.00177051 
-0.249979 -0.0693838 0.0034893 -0.135556 -0.0706375 0.00576986 -0.102567 -0.0685342 0.00722964 
-0.170793 -0.065371 0.0021951 -0.135336 -0.0663862 0.00379357 -0.167008 -0.067896 0.00241701 
-0.0626486 -0.0610906 0.00152444 -0.0367539 -0.0633937 0.00154116 -0.0366467 -0.05058 0.00197485 
-0.210563 -0.0501886 0.00227116 -0.0121457 -0.0490676 0.0022453 -0.0432548 -0.0441383 0.00695651 
-0.145758 -0.0425219 0.00227406 -0.104955 -0.0402458 0.00291046 -0.0540356 -0.0433244 0.00280655 
-0.215678 -0.0385031 0.00166312 -0.306402 -0.0357819 0.00411356 -0.0846322 -0.0363571 0.00282655 
-0.178054 -0.0297404 0.00302319 -0.105815 -0.028984 0.00150348 -0.0179084 -0.0319721 0.00508981 
-0.0334426 -0.0243141 0.0024065 -0.00744202 -0.0220891 0.00211932 -0.0599349 -0.0214086 0.00194566 
-0.0173418 -0.0202723 0.00691137 -0.194021 -0.0156655 0.00190407 -0.0191167 -0.0185829 0.00216804 
-0.105983 -0.0155684 0.00263314 -0.0805347 -0.0148102 0.00210008 -0.0896545 -0.00936835 0.00263637 
-0.171397 -0.0086219 0.00524147 -0.323849 -0.00472995 0.00348253 -0.0554386 -4.98599e-05 0.00182436 
-0.105307 -0.25187 0.00563423 -0.127169 -0.205976 0.00351804 -0.0264545 -0.165709 0.00545871 
-0.0328492 -0.155417 0.0101618 -0.0368617 -0.146773 0.00390015 -0.167861 -0.142478 0.00954773 
-0.167673 -0.131886 0.00172377 -0.0592482 -0.130616 0.010165 -0.253656 -0.130657 0.00674363 
-0.0141237 -0.127779 0.00374139 -0.169944 -0.119984 0.00623519 -0.300898 -0.110444 0.00447986 
-0.151617 -0.102962 0.0041618 -0.111574 -0.0994519 0.00824381 -0.013465 -0.0964337 0.00152249 
-0.0999384 -0.0763296 0.0049222 -0.0849663 -0.0781472 0.00176365 -0.0819392 -0.0427791 0.00855423 
-0.110014 -0.0353107 0.00193748 -0.016679 -0.0261754 0.00501798 -0.0437587 -0.00933613 0.00613702 
-0.0221782 -0.296208 0.0114971 -0.0891692 -0.285875 0.0115457 -0.243169 -0.281279 0.00587316 
-0.0558964 -0.250078 0.0105071 -0.18024 -0.233569 0.00309303 -0.0622355 -0.219315 0.00805408 
-0.168115 -0.220423 0.00618654 -0.159594 -0.141009 0.00579353 -0.0359088 -0.116344 0.0108044 
-0.205962 -0.107533 0.0107963 -0.0833177 -0.112472 0.00931122 -0.0402347 -0.104893 0.0108676 
-0.135073 -0.0868653 0.00937652 -0.122971 -0.0861092 0.0122289 -0.0586842 -0.0761015 0.00300322 
-0.0314333 -0.0746485 0.0106214 -0.0237488 -0.0453433 0.00471247 -0.0256002 -0.0430069 0.0120141 
-0.114566 -0.0371396 0.00639571 -0.010828 -0.0407218 0.00989873 -0.0494914 -0.0270055 0.00921571 
-0.0504485 -0.0252042 0.0068604 -0.134892 -0.016854 0.0109694 -0.235983 -0.0135751 0.0102035 
-0.196503 -0.00783639 0.00804365 -0.137128 -0.00850581 0.00733159 -0.17091 -0.0025863 0.00708671 
-0.0432748 -0.00391089 0.00939012 -0.0579329 -0.247983 0.0142461 -0.15789 -0.226744 0.0109537 
-0.181989 -0.20207 0.0122715 -0.157646 -0.177666 0.00146874 -0.188903 -0.166132 0.00963595 
-0.177876 -0.160287 0.0141903 -0.0786891 -0.145247 0.0131898 -0.118995 -0.130772 0.011206 
-0.00661579 -0.105342 0.00769188 -0.0702307 -0.0804984 0.0160408 -0.0474344 -0.0694907 0.0131729 
-0.0680228 -0.0596033 0.00278137 -0.0826416 -0.0341058 0.00320422 -0.138356 -0.0166833 0.00987234 
-0.129138 -0.0184815 0.0116268 -0.0267848 -0.0120196 0.0098 -0.0933548 -0.0137677 0.00376696 
-0.183622 -0.0021336 0.00997934 -0.0224548 -0.329638 0.0142106 -0.0876007 -0.312891 0.0132801 
-0.0864092 -0.281216 0.0154061 -0.180058 -0.264104 0.0139177 -0.154838 -0.167017 0.0143722 
-0.0512188 -0.160187 0.0179157 -0.0285386 -0.113331 0.00556845 -0.151406 -0.0894046 0.00274182 
-0.0370713 -0.0871855 0.0178197 -0.00368025 -0.0539438 0.0020642 -0.159815 -0.00925684 0.0159606 
-0.147332 -0.00553545 0.00735934 -0.181579 -0.257987 0.0193988 -0.0198883 -0.0633021 0.00439002 
-0.0297838 -0.0396203 0.00724375 -0.163613 -0.0336812 0.0188019 -0.122394 -0.0363854 0.00648926 
-0.33089 -0.0297374 0.00669972 -0.039608 -0.0294672 0.00613389 -0.0467192 -0.00982527 0.00366484 
-0.00242007 -0.193643 0.0184909 -0.236879 -0.0506095 0.0124266 -0.0100322 -0.0108353 0.0103857 
-0.00442071 -0.0989228 0.0112501 -0.0339429 -0.0781498 0.0106472 -0.163711 -0.0226725 0.0130975 
-0.113187 -0.201203 0.0197443 -0.00335488 -0.0861622 0.0158194 -0.0331572 -0.0728078 0.0140019 
-0.0676487 -0.0685298 0.0190676 -0.0161688 -0.0483063 0.0140919 -0.0924694 -0.0329229 0.018545 
-0.0842778 -0.1573 0.0285759 -0.0807125 -0.0348532 0.0240881 -0.00524128 -0.0901406 0.0267229 
-0.0857021 -0.029228 0.0296865 -0.031155 -0.188253 0.0326654 -0.0423533 -0.0311614 0.0315724 
-0.0725359 -0.0110351 0.0288552 -0.0228991 -0.00505659 0.0320838 -0.0147415 -0.0611842 0.0331672 
-0.0472436 -0.0238651 0.0349516 -0.0507101 -0.0841241 0.0358276 -0.0047232 -0.082753 0.0395953 
-0.136793 -0.0817739 0.0401399 -0.0559979 -0.0575567 0.0407569 -0.0119485 -0.0563887 0.0396441 
[...]
POINT_DATA 1462
FIELD FieldData 7
id 1 1462 int
541 614 379 1153 184 408 228 462 186 
13 187 1073 52 308 761 1280 762 332 
928 157 478 776 316 304 1387 1214 618 
913 1236 1456 782 936 1365 463 4 758 
30 307 1051 1364 1431 374 788 1452 919 
178 1234 759 1391 84 656 905 927 29 
615 1376 314 1081 319 903 442 774 1209 
357 1281 310 674 1382 630 467 912 1439 
456 676 39 373 901 1403 997 452 156 
772 1323 910 612 147 64 1235 1182 647 
1005 998 627 393 499 852 1130 1098 1223 
1394 1145 1164 159 1231 1226 1179 619 1202 
925 829 845 677 1222 366 454 23 1010 
327 77 384 626 732 75 965 697 958 
1122 1242 1273 1148 1302 155 971 929 110 
634 1084 405 806 1359 914 24 1300 1358 
835 589 1390 1108 1002 642 937 921 1100 
490 838 474 934 48 177 1203 25 466 
1224 506 1198 1068 726 804 1267 1233 388 
58 487 628 969 225 1045 163 11 354 
107 344 31 586 1441 1405 511 664 1238 
1393 219 1076 1207 1374 1210 803 1109 1085 
469 692 1410 160 633 1385 1383 884 1372 
1065 356 479 1052 906 590 550 923 991 
760 623 862 755 980 1196 171 1125 1266 
15 1055 421 229 34 1070 1377 1336 328 
371 1213 333 1119 1053 1228 1378 620 954 
990 952 688 673 10 397 488 464 1200 
16 182 808 1014 578 36 326 37 190 
528 162 483 391 1245 1057 932 28 481 
165 38 9 336 909 1121 1074 947 21 
81 1060 1483 152 151 1269 1375 756 7 
1497 27 20 1211 337 167 767 1232 313 
175 701 173 302 480 460 317 477 311 
305 306 382 1116 638 629 603 303 1357 
607 1039 1120 458 1412 639 465 786 485 
771 764 1428 778 769 763 781 915 931 
602 1062 604 787 1086 766 1082 1071 1079 
1075 754 1208 916 935 938 1204 1354 1371 
1368 1373 1380 1361 1078 1227 1352 1353 868 
1467 1107 334 96 360 1088 972 215 315 
76 1279 434 1253 655 471 1350 1094 641 
1186 963 1241 1093 822 611 1332 1287 792 
1457 1370 353 805 522 809 1017 222 320 
791 652 1229 93 494 1396 1189 61 1485 
461 40 605 650 1023 427 172 451 208 
295 1402 66 625 198 1409 565 1225 669 
765 1406 581 282 943 1254 933 1416 195 
492 1124 1381 1097 1104 534 1251 649 45 
429 1123 820 1111 1013 1212 818 814 349 
1417 1275 1169 1239 1367 180 278 520 890 
213 974 352 817 523 49 355 72 446 
158 1249 212 519 324 1424 571 1103 430 
1264 648 368 512 616 425 1389 1421 1058 
1472 1401 1261 431 1422 671 1392 1056 1114 
80 1426 273 959 653 1205 185 922 1310 
819 169 1067 610 1099 1345 918 202 1415 
712 960 1064 1 533 799 867 875 870 
926 1308 815 562 654 1154 970 535 1252 
721 911 365 196 62 691 1069 122 646 
644 1270 42 731 1106 946 865 209 1318 
1259 1113 17 887 351 475 1230 1117 288 
265 240 283 73 489 416 361 206 1257 
1362 56 563 301 773 141 670 53 1183 
145 510 71 1272 415 63 1263 1268 797 
496 1329 973 940 752 55 453 1256 709 
583 2 1379 342 600 217 1479 1471 6 
515 738 220 309 513 1246 1297 1217 714 
50 624 811 1240 32 826 1498 468 953 
70 879 47 700 498 556 67 207 432 
1340 192 135 582 189 1276 1339 402 566 
1247 1248 204 214 1221 203 60 35 54 
1399 44 191 347 57 59 343 51 69 
362 46 216 348 74 358 345 369 205 
138 115 340 504 495 521 501 380 341 
518 497 1419 1414 606 491 753 350 193 
948 662 376 660 1369 930 507 1187 657 
524 1077 800 1400 801 790 794 951 672 
796 939 659 668 651 944 955 957 956 
825 945 807 816 1089 907 961 968 1090 
1243 908 1262 1395 1398 1118 1250 1283 112 
1443 1277 154 547 396 1143 1152 266 403 
1458 711 843 1135 259 168 482 1150 79 
1455 227 889 703 329 1147 554 834 784 
269 289 632 964 559 1219 194 321 455 
896 994 392 457 254 1006 1313 779 381 
710 5 837 681 1307 727 241 1290 1136 
775 708 751 675 598 832 325 527 1413 
12 1388 459 693 1285 1191 1188 1293 1206 
1341 104 863 1305 1061 1344 267 258 621 
441 294 1304 363 390 785 170 1083 108 
1172 1301 1054 860 689 239 1420 1484 1425 
250 1478 529 593 640 783 539 346 1016 
322 1436 1156 1278 1327 1309 377 978 920 
277 106 1087 1449 472 857 1027 1159 849 
1448 1177 274 1000 339 789 1215 924 841 
286 704 1134 725 1146 1009 768 532 873 
979 98 993 1430 823 631 540 3 246 
1289 1384 695 484 1201 261 473 1363 1404 
576 1429 976 249 717 1180 1011 869 387 
560 231 1321 1237 41 577 367 1330 97 
26 1355 597 1141 18 144 1012 853 985 
83 802 609 412 500 833 572 850 407 
719 1066 118 999 1331 1194 1440 1451 530 
275 271 230 257 237 1437 780 1435 1311 
383 828 1162 588 728 101 1356 608 90 
1260 188 1271 255 323 567 684 1303 102 
1080 1007 698 757 312 1432 146 1091 1175 
678 166 591 105 1161 86 424 917 1115 
1465 87 95 1454 280 235 854 281 1037 
99 88 1035 493 555 318 161 543 8 
573 262 22 1160 117 85 94 509 82 
233 238 232 1351 839 260 111 359 831 
247 236 1447 1133 636 1157 248 91 1461 
395 549 544 401 406 410 400 399 1482 
855 1427 103 827 551 78 557 552 1131 
553 830 526 404 398 378 409 696 385 
682 389 729 1282 1286 694 1386 705 1462 
531 558 685 699 1284 561 538 858 851 
846 707 433 545 981 848 844 1434 1163 
987 1138 1151 859 982 1144 1158 1292 1294 
992 1312 986 1444 1438 1127 1306 1132 1295 
1149 1460 1496 1486 983 372 335 1476 546 
977 476 287 821 1036 414 1026 113 114 
331 1193 411 181 596 949 505 876 882 
234 658 1220 244 861 418 663 148 1001 
516 14 1407 840 878 872 1255 279 1274 
1181 100 517 1048 898 1342 680 1171 866 
824 1197 856 1170 422 942 1475 798 745 
68 715 1335 1174 1038 291 19 1244 735 
1348 210 1018 967 1423 730 1129 687 503 
1494 1190 574 123 836 394 645 251 746 
1096 741 1019 1046 1492 706 736 564 121 
139 370 1049 272 1044 1477 1176 1020 888 
718 299 126 904 690 679 1216 1112 1468 
1142 747 686 723 1459 635 941 413 1324 
1168 1349 1004 176 200 667 613 1314 750 
43 975 1346 601 183 164 125 1137 891 
338 211 1442 1165 637 285 449 897 749 
1453 988 1105 795 1003 1450 536 599 1296 
1029 702 1185 1101 447 445 1488 895 448 
568 1173 580 127 748 812 1032 1299 136 
1320 386 131 864 1360 1347 444 243 514 
508 116 1028 595 1030 871 1397 92 300 
199 683 1258 1366 720 1445 1095 1500 1008 
1317 810 883 995 1042 537 256 1199 962 
1463 218 1192 1446 1490 989 1288 1489 1155 
224 770 548 226 150 570 892 542 1418 
950 1291 1325 1464 1495 1128 223 364 1319 
201 89 996 1031 1047 1024 1092 722 124 
242 128 65 881 1195 525 417 142 1433 
584 900 842 132 133 134 1315 1072 140 
290 129 120 661 119 284 1337 264 143 
1139 276 1298 137 1487 268 443 130 419 
1110 440 984 292 450 439 293 793 297 
587 579 585 298 296 894 813 438 666 
966 594 569 423 1184 420 1015 426 1338 
1474 742 592 744 1322 437 739 716 1491 
743 734 737 880 893 877 1316 1102 733 
885 1333 740 1041 1050 724 1466 1022 1178 
1033 874 899 886 1166 1328 1343 1043 1034 
1021 1040 1469 1167 1481 1473 1480 1470 1326 
1334 1499 1493 1265 
type 1 1462 int
1 1 1 1 1 1 1 1 1 
1 1 1 1 1 1 1 1 1 
1 1 1 1 1 1 1 1 1 
1 1 1 1 1 1 1 1 1 
1 1 1 1 1 1 1 1 1 
1 1 1 1 1 1 1 1 1 
1 1 1 1 1 1 1 1 1 
1 1 1 1 1 1 1 1 1 
1 1 1 1 1 1 1 1 1 
1 1 1 1 1 1 1 1 1 
1 1 1 1 1 1 1 1 1 
1 1 1 1 1 1 1 1 1 
1 1 1 1 1 1 1 1 1 
1 1 1 1 1 1 1 1 1 
1 1 1 1 1 1 1 1 1 
1 1 1 1 1 1 1 1 1 
1 1 1 1 1 1 1 1 1 
1 1 1 1 1 1 1 1 1 
1 1 1 1 1 1 1 1 1 
1 1 1 1 1 1 1 1 1 
1 1 1 1 1 1 1 1 1 
1 1 1 1 1 1 1 1 1 
1 1 1 1 1 1 1 1 1 
1 1 1 1 1 1 1 1 1 
1 1 1 1 1 1 1 1 1 
1 1 1 1 1 1 1 1 1 
1 1 1 1 1 1 1 1 1 
1 1 1 1 1 1 1 1 1 
1 1 1 1 1 1 1 1 1 
1 1 1 1 1 1 1 1 1 
1 1 1 1 1 1 1 1 1 
1 1 1 1 1 1 1 1 1 
1 1 1 1 1 1 1 1 1 
1 1 1 1 1 1 1 1 1 
1 1 1 1 1 1 1 1 1 
1 1 1 1 1 1 1 1 1 
1 1 1 1 1 1 1 1 1 
1 1 1 1 1 1 1 1 1 
1 1 1 1 1 1 1 1 1 
1 1 1 1 1 1 1 1 1 
1 1 1 1 1 1 1 1 1 
1 1 1 1 1 1 1 1 1 
1 1 1 1 1 1 1 1 1 
1 1 1 1 1 1 1 1 1 
1 1 1 1 1 1 1 1 1 
1 1 1 1 1 1 1 1 1 
1 1 1 1 1 1 1 1 1 
1 1 1 1 1 1 1 1 1 
1 1 1 1 1 1 1 1 1 
1 1 1 1 1 1 1 1 1 
1 1 1 1 1 1 1 1 1 
1 1 1 1 1 1 1 1 1 
1 1 1 1 1 1 1 1 1 
1 1 1 1 1 1 1 1 1 
1 1 1 1 1 1 1 1 1 
1 1 1 1 1 1 1 1 1 
1 1 1 1 1 1 1 1 1 
1 1 1 1 1 1 1 1 1 
1 1 1 1 1 1 1 1 1 
1 1 1 1 1 1 1 1 1 
1 1 1 1 1 1 1 1 1 
1 1 1 1 1 1 1 1 1 
1 1 1 1 1 1 1 1 1 
1 1 1 1 1 1 1 1 1 
1 1 1 1 1 1 1 1 1 
1 1 1 1 1 1 1 1 1 
1 1 1 1 1 1 1 1 1 
1 1 1 1 1 1 1 1 1 
1 1 1 1 1 1 1 1 1 
1 1 1 1 1 1 1 1 1 
1 1 1 1 1 1 1 1 1 
1 1 1 1 1 1 1 1 1 
1 1 1 1 1 1 1 1 1 
1 1 1 1 1 1 1 1 1 
1 1 1 1 1 1 1 1 1 
1 1 1 1 1 1 1 1 1 
1 1 1 1 1 1 1 1 1 
1 1 1 1 1 1 1 1 1 
1 1 1 1 1 1 1 1 1 
1 1 1 1 1 1 1 1 1 
1 1 1 1 1 1 1 1 1 
1 1 1 1 1 1 1 1 1 
1 1 1 1 1 1 1 1 1 
1 1 1 1 1 1 1 1 1 
1 1 1 1 1 1 1 1 1 
1 1 1 1 1 1 1 1 1 
1 1 1 1 1 1 1 1 1 
1 1 1 1 1 1 1 1 1 
1 1 1 1 1 1 1 1 1 
1 1 1 1 1 1 1 1 1 
1 1 1 1 1 1 1 1 1 
1 1 1 1 1 1 1 1 1 
1 1 1 1 1 1 1 1 1 
1 1 1 1 1 1 1 1 1 
1 1 1 1 1 1 1 1 1 
1 1 1 1 1 1 1 1 1 
1 1 1 1 1 1 1 1 1 
1 1 1 1 1 1 1 1 1 
1 1 1 1 1 1 1 1 1 
1 1 1 1 1 1 1 1 1 
1 1 1 1 1 1 1 1 1 
1 1 1 1 1 1 1 1 1 
1 1 1 1 1 1 1 1 1 
1 1 1 1 1 1 1 1 1 
1 1 1 1 1 1 1 1 1 
1 1 1 1 1 1 1 1 1 
1 1 1 1 1 1 1 1 1 
1 1 1 1 1 1 1 1 1 
1 1 1 1 1 1 1 1 1 
1 1 1 1 1 1 1 1 1 
1 1 1 1 1 1 1 1 1 
1 1 1 1 1 1 1 1 1 
1 1 1 1 1 1 1 1 1 
1 1 1 1 1 1 1 1 1 
1 1 1 1 1 1 1 1 1 
1 1 1 1 1 1 1 1 1 
1 1 1 1 1 1 1 1 1 
1 1 1 1 1 1 1 1 1 
1 1 1 1 1 1 1 1 1 
1 1 1 1 1 1 1 1 1 
1 1 1 1 1 1 1 1 1 
1 1 1 1 1 1 1 1 1 
1 1 1 1 1 1 1 1 1 
1 1 1 1 1 1 1 1 1 
1 1 1 1 1 1 1 1 1 
1 1 1 1 1 1 1 1 1 
1 1 1 1 1 1 1 1 1 
1 1 1 1 1 1 1 1 1 
1 1 1 1 1 1 1 1 1 
1 1 1 1 1 1 1 1 1 
1 1 1 1 1 1 1 1 1 
1 1 1 1 1 1 1 1 1 
1 1 1 1 1 1 1 1 1 
1 1 1 1 1 1 1 1 1 
1 1 1 1 1 1 1 1 1 
1 1 1 1 1 1 1 1 1 
1 1 1 1 1 1 1 1 1 
1 1 1 1 1 1 1 1 1 
1 1 1 1 1 1 1 1 1 
1 1 1 1 1 1 1 1 1 
1 1 1 1 1 1 1 1 1 
1 1 1 1 1 1 1 1 1 
1 1 1 1 1 1 1 1 1 
1 1 1 1 1 1 1 1 1 
1 1 1 1 1 1 1 1 1 
1 1 1 1 1 1 1 1 1 
1 1 1 1 1 1 1 1 1 
1 1 1 1 1 1 1 1 1 
1 1 1 1 1 1 1 1 1 
1 1 1 1 1 1 1 1 1 
1 1 1 1 1 1 1 1 1 
1 1 1 1 1 1 1 1 1 
1 1 1 1 1 1 1 1 1 
1 1 1 1 1 1 1 1 1 
1 1 1 1 1 1 1 1 1 
1 1 1 1 1 1 1 1 1 
1 1 1 1 1 1 1 1 1 
1 1 1 1 1 1 1 1 1 
1 1 1 1 1 1 1 1 1 
1 1 1 1 1 1 1 1 1 
1 1 1 1 1 1 1 1 1 
1 1 1 1 1 1 1 1 1 
1 1 1 1 
i 3 1462 int
0 0 0 0 0 0 0 0 0 
0 0 0 0 0 0 0 0 0 
0 0 0 0 0 0 0 0 0 
0 0 0 0 0 0 0 0 0 
0 0 0 0 0 0 0 0 0 
0 0 0 0 0 0 0 0 0 
0 0 0 0 0 0 0 0 0 
0 0 0 0 0 0 0 0 0 
0 0 0 0 0 0 0 0 0 
0 0 0 0 0 0 0 0 0 
0 0 0 0 0 0 0 0 0 
0 0 0 0 0 0 0 0 0 
0 0 0 0 0 0 0 0 0 
0 0 0 0 0 0 0 0 0 
0 0 0 0 0 0 0 0 0 
0 0 0 0 0 0 0 0 0 
0 0 0 0 0 0 0 0 0 
0 0 0 0 0 0 0 0 0 
0 0 0 0 0 0 0 0 0 
0 0 0 0 0 0 0 0 0 
0 0 0 0 0 0 0 0 0 
0 0 0 0 0 0 0 0 0 
0 0 0 0 0 0 0 0 0 
0 0 0 0 0 0 0 0 0 
0 0 0 0 0 0 0 0 0 
0 0 0 0 0 0 0 0 0 
0 0 0 0 0 0 0 0 0 
0 0 0 0 0 0 0 0 0 
0 0 0 0 0 0 0 0 0 
0 0 0 0 0 0 0 0 0 
0 0 0 0 0 0 0 0 0 
0 0 0 0 0 0 0 0 0 
0 0 0 0 0 0 0 0 0 
0 0 0 0 0 0 0 0 0 
0 0 0 0 0 0 0 0 0 
0 0 0 0 0 0 0 0 0 
0 0 0 0 0 0 0 0 0 
0 0 0 0 0 0 0 0 0 
0 0 0 0 0 0 0 0 0 
0 0 0 0 0 0 0 0 0 
0 0 0 0 0 0 0 0 0 
0 0 0 0 0 0 0 0 0 
0 0 0 0 0 0 0 0 0 
0 0 0 0 0 0 0 0 0 
0 0 0 0 0 0 0 0 0 
0 0 0 0 0 0 0 0 0 
0 0 0 0 0 0 0 0 0 
0 0 0 0 0 0 0 0 0 
0 0 0 0 0 0 0 0 0 
0 0 0 0 0 0 0 0 0 
0 0 0 0 0 0 0 0 0 
0 0 0 0 0 0 0 0 0 
0 0 0 0 0 0 0 0 0 
0 0 0 0 0 0 0 0 0 
0 0 0 0 0 0 0 0 0 
0 0 0 0 0 0 0 0 0 
0 0 0 0 0 0 0 0 0 
0 0 0 0 0 0 0 0 0 
0 0 0 0 0 0 0 0 0 
0 0 0 0 0 0 0 0 0 
0 0 0 0 0 0 0 0 0 
0 0 0 0 0 0 0 0 0 
0 0 0 0 0 0 0 0 0 
0 0 0 0 0 0 0 0 0 
0 0 0 0 0 0 0 0 0 
0 0 0 0 0 0 0 0 0 
0 0 0 0 0 0 0 0 0 
0 0 0 0 0 0 0 0 0 
0 0 0 0 0 0 0 0 0 
0 0 0 0 0 0 0 0 0 
0 0 0 0 0 0 0 0 0 
0 0 0 0 0 0 0 0 0 
0 0 0 0 0 0 0 0 0 
0 0 0 0 0 0 0 0 0 
0 0 0 0 0 0 0 0 0 
0 0 0 0 0 0 0 0 0 
0 0 0 0 0 0 0 0 0 
0 0 0 0 0 0 0 0 0 
0 0 0 0 0 0 0 0 0 
0 0 0 0 0 0 0 0 0 
0 0 0 0 0 0 0 0 0 
0 0 0 0 0 0 0 0 0 
0 0 0 0 0 0 0 0 0 
0 0 0 0 0 0 0 0 0 
0 0 0 0 0 0 0 0 0 
0 0 0 0 0 0 0 0 0 
0 0 0 0 0 0 0 0 0 
0 0 0 0 0 0 0 0 0 
0 0 0 0 0 0 0 0 0 
0 0 0 0 0 0 0 0 0 
0 0 0 0 0 0 0 0 0 
0 0 0 0 0 0 0 0 0 
0 0 0 0 0 0 0 0 0 
0 0 0 0 0 0 0 0 0 
0 0 0 0 0 0 0 0 0 
0 0 0 0 0 0 0 0 0 
0 0 0 0 0 0 0 0 0 
0 0 0 0 0 0 0 0 0 
0 0 0 0 0 0 0 0 0 
0 0 0 0 0 0 0 0 0 
0 0 0 0 0 0 0 0 0 
0 0 0 0 0 0 0 0 0 
0 0 0 0 0 0 0 0 0 
0 0 0 0 0 0 0 0 0 
0 0 0 0 0 0 0 0 0 
0 0 0 0 0 0 0 0 0 
0 0 0 0 0 0 0 0 0 
0 0 0 0 0 0 0 0 0 
0 0 0 0 0 0 0 0 0 
0 0 0 0 0 0 0 0 0 
0 0 0 0 0 0 0 0 0 
0 0 0 0 0 0 0 0 0 
0 0 0 0 0 0 0 0 0 
0 0 0 0 0 0 0 0 0 
0 0 0 0 0 0 0 0 0 
0 0 0 0 0 0 0 0 0 
0 0 0 0 0 0 0 0 0 
0 0 0 0 0 0 0 0 0 
0 0 0 0 0 0 0 0 0 
0 0 0 0 0 0 0 0 0 
0 0 0 0 0 0 0 0 0 
0 0 0 0 0 0 0 0 0 
0 0 0 0 0 0 0 0 0 
0 0 0 0 0 0 0 0 0 
0 0 0 0 0 0 0 0 0 
0 0 0 0 0 0 0 0 0 
0 0 0 0 0 0 0 0 0 
0 0 0 0 0 0 0 0 0 
0 0 0 0 0 0 0 0 0 
0 0 0 0 0 0 0 0 0 
0 0 0 0 0 0 0 0 0 
0 0 0 0 0 0 0 0 0 
0 0 0 0 0 0 0 0 0 
0 0 0 0 0 0 0 0 0 
0 0 0 0 0 0 0 0 0 
0 0 0 0 0 0 0 0 0 
0 0 0 0 0 0 0 0 0 
0 0 0 0 0 0 0 0 0 
0 0 0 0 0 0 0 0 0 
0 0 0 0 0 0 0 0 0 
0 0 0 0 0 0 0 0 0 
0 0 0 0 0 0 0 0 0 
0 0 0 0 0 0 0 0 0 
0 0 0 0 0 0 0 0 0 
0 0 0 0 0 0 0 0 0 
0 0 0 0 0 0 0 0 0 
0 0 0 0 0 0 0 0 0 
0 0 0 0 0 0 0 0 0 
0 0 0 0 0 0 0 0 0 
0 0 0 0 0 0 0 0 0 
0 0 0 0 0 0 0 0 0 
0 0 0 0 0 0 0 0 0 
0 0 0 0 0 0 0 0 0 
0 0 0 0 0 0 0 0 0 
0 0 0 0 0 0 0 0 0 
0 0 0 0 0 0 0 0 0 
0 0 0 0 0 0 0 0 0 
0 0 0 0 0 0 0 0 0 
0 0 0 0 0 0 0 0 0 
0 0 0 0 0 0 0 0 0 
0 0 0 0 0 0 0 0 0 
0 0 0 0 0 0 0 0 0 
0 0 0 0 0 0 0 0 0 
0 0 0 0 0 0 0 0 0 
0 0 0 0 0 0 0 0 0 
0 0 0 0 0 0 0 0 0 
0 0 0 0 0 0 0 0 0 
0 0 0 0 0 0 0 0 0 
0 0 0 0 0 0 0 0 0 
0 0 0 0 0 0 0 0 0 
0 0 0 0 0 0 0 0 0 
0 0 0 0 0 0 0 0 0 
0 0 0 0 0 0 0 0 0 
0 0 0 0 0 0 0 0 0 
0 0 0 0 0 0 0 0 0 
0 0 0 0 0 0 0 0 0 
0 0 0 0 0 0 0 0 0 
0 0 0 0 0 0 0 0 0 
0 0 0 0 0 0 0 0 0 
0 0 0 0 0 0 0 0 0 
0 0 0 0 0 0 0 0 0 
0 0 0 0 0 0 0 0 0 
0 0 0 0 0 0 0 0 0 
0 0 0 0 0 0 0 0 0 
0 0 0 0 0 0 0 0 0 
0 0 0 0 0 0 0 0 0 
0 0 0 0 0 0 0 0 0 
0 0 0 0 0 0 0 0 0 
0 0 0 0 0 0 0 0 0 
0 0 0 0 0 0 0 0 0 
0 0 0 0 0 0 0 0 0 
0 0 0 0 0 0 0 0 0 
0 0 0 0 0 0 0 0 0 
0 0 0 0 0 0 0 0 0 
0 0 0 0 0 0 0 0 0 
0 0 0 0 0 0 0 0 0 
0 0 0 0 0 0 0 0 0 
0 0 0 0 0 0 0 0 0 
0 0 0 0 0 0 0 0 0 
0 0 0 0 0 0 0 0 0 
0 0 0 0 0 0 0 0 0 
0 0 0 0 0 0 0 0 0 
0 0 0 0 0 0 0 0 0 
0 0 0 0 0 0 0 0 0 
0 0 0 0 0 0 0 0 0 
0 0 0 0 0 0 0 0 0 
0 0 0 0 0 0 0 0 0 
0 0 0 0 0 0 0 0 0 
0 0 0 0 0 0 0 0 0 
0 0 0 0 0 0 0 0 0 
0 0 0 0 0 0 0 0 0 
0 0 0 0 0 0 0 0 0 
0 0 0 0 0 0 0 0 0 
0 0 0 0 0 0 0 0 0 
0 0 0 0 0 0 0 0 0 
0 0 0 0 0 0 0 0 0 
0 0 0 0 0 0 0 0 0 
0 0 0 0 0 0 0 0 0 
0 0 0 0 0 0 0 0 0 
0 0 0 0 0 0 0 0 0 
0 0 0 0 0 0 0 0 0 
0 0 0 0 0 0 0 0 0 
0 0 0 0 0 0 0 0 0 
0 0 0 0 0 0 0 0 0 
0 0 0 0 0 0 0 0 0 
0 0 0 0 0 0 0 0 0 
0 0 0 0 0 0 0 0 0 
0 0 0 0 0 0 0 0 0 
0 0 0 0 0 0 0 0 0 
0 0 0 0 0 0 0 0 0 
0 0 0 0 0 0 0 0 0 
0 0 0 0 0 0 0 0 0 
0 0 0 0 0 0 0 0 0 
0 0 0 0 0 0 0 0 0 
0 0 0 0 0 0 0 0 0 
0 0 0 0 0 0 0 0 0 
0 0 0 0 0 0 0 0 0 
0 0 0 0 0 0 0 0 0 
0 0 0 0 0 0 0 0 0 
0 0 0 0 0 0 0 0 0 
0 0 0 0 0 0 0 0 0 
0 0 0 0 0 0 0 0 0 
0 0 0 0 0 0 0 0 0 
0 0 0 0 0 0 0 0 0 
0 0 0 0 0 0 0 0 0 
0 0 0 0 0 0 0 0 0 
0 0 0 0 0 0 0 0 0 
0 0 0 0 0 0 0 0 0 
0 0 0 0 0 0 0 0 0 
0 0 0 0 0 0 0 0 0 
0 0 0 0 0 0 0 0 0 
0 0 0 0 0 0 0 0 0 
0 0 0 0 0 0 0 0 0 
0 0 0 0 0 0 0 0 0 
0 0 0 0 0 0 0 0 0 
0 0 0 0 0 0 0 0 0 
0 0 0 0 0 0 0 0 0 
0 0 0 0 0 0 0 0 0 
0 0 0 0 0 0 0 0 0 
0 0 0 0 0 0 0 0 0 
0 0 0 0 0 0 0 0 0 
0 0 0 0 0 0 0 0 0 
0 0 0 0 0 0 0 0 0 
0 0 0 0 0 0 0 0 0 
0 0 0 0 0 0 0 0 0 
0 0 0 0 0 0 0 0 0 
0 0 0 0 0 0 0 0 0 
0 0 0 0 0 0 0 0 0 
0 0 0 0 0 0 0 0 0 
0 0 0 0 0 0 0 0 0 
0 0 0 0 0 0 0 0 0 
0 0 0 0 0 0 0 0 0 
0 0 0 0 0 0 0 0 0 
0 0 0 0 0 0 0 0 0 
0 0 0 0 0 0 0 0 0 
0 0 0 0 0 0 0 0 0 
0 0 0 0 0 0 0 0 0 
0 0 0 0 0 0 0 0 0 
0 0 0 0 0 0 0 0 0 
0 0 0 0 0 0 0 0 0 
0 0 0 0 0 0 0 0 0 
0 0 0 0 0 0 0 0 0 
0 0 0 0 0 0 0 0 0 
0 0 0 0 0 0 0 0 0 
0 0 0 0 0 0 0 0 0 
0 0 0 0 0 0 0 0 0 
0 0 0 0 0 0 0 0 0 
0 0 0 0 0 0 0 0 0 
0 0 0 0 0 0 0 0 0 
0 0 0 0 0 0 0 0 0 
0 0 0 0 0 0 0 0 0 
0 0 0 0 0 0 0 0 0 
0 0 0 0 0 0 0 0 0 
0 0 0 0 0 0 0 0 0 
0 0 0 0 0 0 0 0 0 
0 0 0 0 0 0 0 0 0 
0 0 0 0 0 0 0 0 0 
0 0 0 0 0 0 0 0 0 
0 0 0 0 0 0 0 0 0 
0 0 0 0 0 0 0 0 0 
0 0 0 0 0 0 0 0 0 
0 0 0 0 0 0 0 0 0 
0 0 0 0 0 0 0 0 0 
0 0 0 0 0 0 0 0 0 
0 0 0 0 0 0 0 0 0 
0 0 0 0 0 0 0 0 0 
0 0 0 0 0 0 0 0 0 
0 0 0 0 0 0 0 0 0 
0 0 0 0 0 0 0 0 0 
0 0 0 0 0 0 0 0 0 
0 0 0 0 0 0 0 0 0 
0 0 0 0 0 0 0 0 0 
0 0 0 0 0 0 0 0 0 
0 0 0 0 0 0 0 0 0 
0 0 0 0 0 0 0 0 0 
0 0 0 0 0 0 0 0 0 
0 0 0 0 0 0 0 0 0 
0 0 0 0 0 0 0 0 0 
0 0 0 0 0 0 0 0 0 
0 0 0 0 0 0 0 0 0 
0 0 0 0 0 0 0 0 0 
0 0 0 0 0 0 0 0 0 
0 0 0 0 0 0 0 0 0 
0 0 0 0 0 0 0 0 0 
0 0 0 0 0 0 0 0 0 
0 0 0 0 0 0 0 0 0 
0 0 0 0 0 0 0 0 0 
0 0 0 0 0 0 0 0 0 
0 0 0 0 0 0 0 0 0 
0 0 0 0 0 0 0 0 0 
0 0 0 0 0 0 0 0 0 
0 0 0 0 0 0 0 0 0 
0 0 0 0 0 0 0 0 0 
0 0 0 0 0 0 0 0 0 
0 0 0 0 0 0 0 0 0 
0 0 0 0 0 0 0 0 0 
0 0 0 0 0 0 0 0 0 
0 0 0 0 0 0 0 0 0 
0 0 0 0 0 0 0 0 0 
0 0 0 0 0 0 0 0 0 
0 0 0 0 0 0 0 0 0 
0 0 0 0 0 0 0 0 0 
0 0 0 0 0 0 0 0 0 
0 0 0 0 0 0 0 0 0 
0 0 0 0 0 0 0 0 0 
0 0 0 0 0 0 0 0 0 
0 0 0 0 0 0 0 0 0 
0 0 0 0 0 0 0 0 0 
0 0 0 0 0 0 0 0 0 
0 0 0 0 0 0 0 0 0 
0 0 0 0 0 0 0 0 0 
0 0 0 0 0 0 0 0 0 
0 0 0 0 0 0 0 0 0 
0 0 0 0 0 0 0 0 0 
0 0 0 0 0 0 0 0 0 
0 0 0 0 0 0 0 0 0 
0 0 0 0 0 0 0 0 0 
0 0 0 0 0 0 0 0 0 
0 0 0 0 0 0 0 0 0 
0 0 0 0 0 0 0 0 0 
0 0 0 0 0 0 0 0 0 
0 0 0 0 0 0 0 0 0 
0 0 0 0 0 0 0 0 0 
0 0 0 0 0 0 0 0 0 
0 0 0 0 0 0 0 0 0 
0 0 0 0 0 0 0 0 0 
0 0 0 0 0 0 0 0 0 
0 0 0 0 0 0 0 0 0 
0 0 0 0 0 0 0 0 0 
0 0 0 0 0 0 0 0 0 
0 0 0 0 0 0 0 0 0 
0 0 0 0 0 0 0 0 0 
0 0 0 0 0 0 0 0 0 
0 0 0 0 0 0 0 0 0 
0 0 0 0 0 0 0 0 0 
0 0 0 0 0 0 0 0 0 
0 0 0 0 0 0 0 0 0 
0 0 0 0 0 0 0 0 0 
0 0 0 0 0 0 0 0 0 
0 0 0 0 0 0 0 0 0 
0 0 0 0 0 0 0 0 0 
0 0 0 0 0 0 0 0 0 
0 0 0 0 0 0 0 0 0 
0 0 0 0 0 0 0 0 0 
0 0 0 0 0 0 0 0 0 
0 0 0 0 0 0 0 0 0 
0 0 0 0 0 0 0 0 0 
0 0 0 0 0 0 0 0 0 
0 0 0 0 0 0 0 0 0 
0 0 0 0 0 0 0 0 0 
0 0 0 0 0 0 0 0 0 
0 0 0 0 0 0 0 0 0 
0 0 0 0 0 0 0 0 0 
0 0 0 0 0 0 0 0 0 
0 0 0 0 0 0 0 0 0 
0 0 0 0 0 0 0 0 0 
0 0 0 0 0 0 0 0 0 
0 0 0 0 0 0 0 0 0 
0 0 0 0 0 0 0 0 0 
0 0 0 0 0 0 0 0 0 
0 0 0 0 0 0 0 0 0 
0 0 0 0 0 0 0 0 0 
0 0 0 0 0 0 0 0 0 
0 0 0 0 0 0 0 0 0 
0 0 0 0 0 0 0 0 0 
0 0 0 0 0 0 0 0 0 
0 0 0 0 0 0 0 0 0 
0 0 0 0 0 0 0 0 0 
0 0 0 0 0 0 0 0 0 
0 0 0 0 0 0 0 0 0 
0 0 0 0 0 0 0 0 0 
0 0 0 0 0 0 0 0 0 
0 0 0 0 0 0 0 0 0 
0 0 0 0 0 0 0 0 0 
0 0 0 0 0 0 0 0 0 
0 0 0 0 0 0 0 0 0 
0 0 0 0 0 0 0 0 0 
0 0 0 0 0 0 0 0 0 
0 0 0 0 0 0 0 0 0 
0 0 0 0 0 0 0 0 0 
0 0 0 0 0 0 0 0 0 
0 0 0 0 0 0 0 0 0 
0 0 0 0 0 0 0 0 0 
0 0 0 0 0 0 0 0 0 
0 0 0 0 0 0 0 0 0 
0 0 0 0 0 0 0 0 0 
0 0 0 0 0 0 0 0 0 
0 0 0 0 0 0 0 0 0 
0 0 0 0 0 0 0 0 0 
0 0 0 0 0 0 0 0 0 
0 0 0 0 0 0 0 0 0 
0 0 0 0 0 0 0 0 0 
0 0 0 0 0 0 0 0 0 
0 0 0 0 0 0 0 0 0 
0 0 0 0 0 0 0 0 0 
0 0 0 0 0 0 0 0 0 
0 0 0 0 0 0 0 0 0 
0 0 0 0 0 0 0 0 0 
0 0 0 0 0 0 0 0 0 
0 0 0 0 0 0 0 0 0 
0 0 0 0 0 0 0 0 0 
0 0 0 0 0 0 0 0 0 
0 0 0 0 0 0 0 0 0 
0 0 0 0 0 0 0 0 0 
0 0 0 0 0 0 0 0 0 
0 0 0 0 0 0 0 0 0 
0 0 0 0 0 0 0 0 0 
0 0 0 0 0 0 0 0 0 
0 0 0 0 0 0 0 0 0 
0 0 0 0 0 0 0 0 0 
0 0 0 0 0 0 0 0 0 
0 0 0 0 0 0 0 0 0 
0 0 0 0 0 0 0 0 0 
0 0 0 0 0 0 0 0 0 
0 0 0 0 0 0 0 0 0 
0 0 0 0 0 0 0 0 0 
0 0 0 0 0 0 0 0 0 
0 0 0 0 0 0 0 0 0 
0 0 0 0 0 0 0 0 0 
0 0 0 0 0 0 0 0 0 
0 0 0 0 0 0 0 0 0 
0 0 0 0 0 0 0 0 0 
0 0 0 0 0 0 0 0 0 
0 0 0 0 0 0 0 0 0 
0 0 0 0 0 0 0 0 0 
0 0 0 0 0 0 0 0 0 
0 0 0 0 0 0 0 0 0 
0 0 0 0 0 0 0 0 0 
0 0 0 0 0 0 0 0 0 
0 0 0 0 0 0 0 0 0 
0 0 0 0 0 0 0 0 0 
0 0 0 0 0 0 0 0 0 
0 0 0 0 0 0 0 0 0 
0 0 0 0 0 0 0 0 0 
0 0 0 0 0 0 0 0 0 
0 0 0 0 0 0 0 0 0 
0 0 0 0 0 0 0 0 0 
0 0 0 0 0 0 0 0 0 
0 0 0 0 0 0 0 0 0 
0 0 0 0 0 0 0 0 0 
0 0 0 0 0 0 0 0 0 
0 0 0 0 0 0 0 0 0 
0 0 0 0 0 0 0 0 0 
0 0 0 0 0 0 0 0 0 
0 0 0 0 0 0 0 0 0 
0 0 0 0 0 0 0 0 0 
0 0 0 0 0 0 0 0 0 
0 0 0 
v 3 1462 double
-0.115814 0.189687 -1.77081e-15 -0.470767 -1.13862 1.83709e-15 -0.586303 -0.911095 5.55227e-14 
-0.409142 -0.935135 1.83636e-15 -0.439923 -0.717388 -5.37944e-15 -0.248033 -0.511291 4.21142e-07 
0.00379253 -0.696927 -5.37944e-15 -0.26847 -0.732073 -5.37943e-15 -0.0271012 -0.772639 5.44425e-15 
-1.01421 -0.776483 -8.98513e-15 -0.157743 -0.71324 9.05139e-15 -0.512434 -0.705118 2.3462e-13 
0.136715 -0.656444 -5.37944e-15 -0.0381695 -0.612773 1.83708e-15 -0.457603 -0.692803 9.05068e-15 
-0.813412 -0.894517 -8.98586e-15 -0.238901 -0.614036 9.0514e-15 -0.945903 -0.5536 -5.37945e-15 
-0.486504 -0.715722 -5.37945e-15 -0.233677 -0.458002 9.53575e-09 -0.113735 -0.365486 1.54207e-12 
0.0577118 -0.586456 1.83708e-15 -0.656209 -0.340464 -5.37945e-15 0.120543 -0.746046 5.44424e-15 
-0.18641 -0.590235 -8.98513e-15 -0.816184 -0.572349 1.83636e-15 -0.147606 -0.613783 1.83636e-15 
-0.485345 -0.528198 -8.98586e-15 -0.223073 -0.621431 5.44423e-15 -0.12974 -0.582787 1.83635e-15 
-0.271192 -0.505274 0.0212661 -0.495957 -0.44606 9.0514e-15 -0.155522 -0.593877 -3.90278e-16 