# vtk DataFile Version 4.0
Generated by LIGGGHTS
ASCII
DATASET POLYDATA
POINTS 1488 float
-0.130689 -0.262495 -0.99501 -0.13727 -0.254204 -0.99501 -0.147436 -0.243326 -0.990032 
-0.127349 -0.240965 -0.995005 -0.162979 -0.245542 -0.99501 -0.119723 -0.265433 -0.99501 
-0.114316 -0.256899 -0.99501 -0.0680865 -0.271555 -0.99501 -0.0788627 -0.271178 -0.99498 
-0.0920416 -0.276944 -0.99501 -0.0692546 -0.282185 -0.99501 -0.105264 -0.269452 -0.990032 
-0.065078 -0.258651 -0.994591 -0.0801209 -0.28245 -0.99501 -0.104025 -0.250319 -0.99501 
-0.0938803 -0.257553 -0.99501 -0.0821388 -0.25858 -0.994434 -0.0891173 -0.266671 -0.995009 
-0.0930099 -0.245873 -0.995011 -0.0601178 -0.272556 -0.977389 -0.0769522 -0.263554 -0.986611 
-0.115675 -0.244635 -0.993164 -0.0727512 -0.251545 -0.995014 -0.0694722 -0.256763 -0.985679 
-0.0800524 -0.242759 -0.994469 -0.0525018 -0.248282 -0.994953 -0.0419693 -0.250815 -0.995014 
-0.0564717 -0.263867 -0.99501 -0.0410972 -0.279588 -0.99501 -0.0457417 -0.240938 -0.995012 
-0.0462256 -0.261413 -0.99501 -0.03739 -0.270272 -0.99501 -0.0272963 -0.293101 -0.99501 
-0.0552612 -0.278987 -0.990028 -0.0132886 -0.254723 -0.995014 -0.0472626 -0.290953 -0.99501 
-0.0173024 -0.294079 -0.99501 -0.031125 -0.281824 -0.99501 -0.00441742 -0.249756 -0.995017 
-0.00651499 -0.294852 -0.995009 -0.00574092 -0.284868 -0.995011 -0.0259092 -0.273124 -0.99501 
-0.0289279 -0.25627 -0.990026 -0.0371742 -0.290845 -0.99501 -0.0113547 -0.276148 -0.99501 
-0.0206731 -0.281988 -0.995009 -0.00716976 -0.26699 -0.995011 -0.0171178 -0.26798 -0.995009 
-0.000145303 -0.259358 -0.99501 -0.000987067 -0.275486 -0.99501 0.00320211 -0.251924 -0.988935 
0.00688137 -0.244899 -0.995007 0.00439745 -0.29483 -0.99501 0.0261806 -0.291582 -0.99501 
0.0125224 -0.273549 -0.99501 0.0339778 -0.272895 -0.99501 0.00668535 -0.284987 -0.99501 
0.0159236 -0.259809 -0.990031 0.0357214 -0.287249 -0.99501 0.0433671 -0.244966 -0.99501 
0.0253186 -0.249009 -0.99501 0.0530744 -0.28221 -0.990032 0.0470102 -0.268804 -0.99501 
0.0320586 -0.262706 -0.99501 0.0178343 -0.283875 -0.99501 0.0595811 -0.253075 -0.990035 
0.0799393 -0.279696 -0.99501 0.092374 -0.27735 -0.99501 0.092796 -0.267279 -0.995017 
0.110894 -0.270153 -0.995008 0.107779 -0.25772 -0.99501 0.0762221 -0.263541 -0.99501 
0.0708757 -0.273042 -0.99501 0.074916 -0.253484 -0.99501 0.0747558 -0.242149 -0.99501 
0.101226 -0.272594 -0.994285 0.117594 -0.253751 -0.99501 0.121326 -0.243779 -0.99501 
0.122099 -0.267892 -0.99501 0.131227 -0.261033 -0.99501 0.141791 -0.25717 -0.99501 
0.153673 -0.251024 -0.99501 0.14237 -0.243281 -0.99501 0.132457 -0.249965 -0.99501 
0.163802 -0.244689 -0.99501 0.154093 -0.240841 -0.99501 -0.209514 -0.207272 -0.99501 
-0.186302 -0.227414 -0.99501 -0.201258 -0.201253 -0.99501 -0.193127 -0.219678 -0.995003 
-0.201811 -0.213936 -0.99501 -0.216964 -0.19931 -0.99501 -0.210814 -0.188021 -0.99501 
-0.200166 -0.187664 -0.99501 -0.22169 -0.185662 -0.99501 -0.193259 -0.208092 -0.995001 
-0.231545 -0.181583 -0.99501 -0.182183 -0.2014 -0.99501 -0.183994 -0.214905 -0.991878 
-0.18303 -0.187906 -0.99501 -0.166011 -0.22604 -0.99501 -0.16534 -0.200112 -0.99501 
-0.132674 -0.207278 -0.99501 -0.132635 -0.223615 -0.985028 -0.175581 -0.209771 -0.995005 
-0.154861 -0.2117 -0.990035 -0.140253 -0.215425 -0.995011 -0.146201 -0.226227 -0.99501 
-0.15324 -0.196734 -0.99501 -0.157125 -0.183785 -0.99501 -0.140621 -0.190274 -0.99501 
-0.121719 -0.200029 -0.995017 -0.133216 -0.182901 -0.99501 -0.106913 -0.236605 -0.994997 
-0.0612889 -0.229466 -0.99501 -0.0973673 -0.233801 -0.995021 -0.0692551 -0.238231 -0.99501 
-0.0792117 -0.189097 -0.995034 -0.0884028 -0.227493 -0.995005 -0.0700464 -0.22387 -0.995097 
-0.06905 -0.205082 -0.996456 -0.0962184 -0.206926 -0.99501 -0.0706811 -0.194432 -0.995933 
-0.0798785 -0.219428 -0.99501 -0.0808805 -0.20549 -0.995554 -0.091209 -0.217808 -0.995017 
-0.062589 -0.217422 -0.995634 -0.0666806 -0.204618 -0.943012 -0.0576686 -0.239749 -0.995002 
-0.0591849 -0.19145 -0.995414 -1.72986e-05 -0.233 -0.99501 -0.0225818 -0.229687 -0.99501 
-0.0508778 -0.231309 -0.995009 -0.0312229 -0.237801 -0.99501 -0.0492819 -0.18727 -0.995307 
-0.050667 -0.197497 -0.995021 -0.059253 -0.207838 -0.996183 -0.0237699 -0.218931 -0.99501 
-0.0459698 -0.220495 -0.99501 -0.0148032 -0.214035 -0.99501 -0.0360599 -0.224941 -0.99501 
-0.0348233 -0.214485 -0.99501 -0.044685 -0.206859 -0.99501 -0.0349375 -0.197975 -0.99501 
-0.0242102 -0.192625 -0.99501 -0.0367844 -0.185746 -0.99501 -0.0153461 -0.199995 -0.99501 
-0.00452954 -0.188729 -0.99501 -0.00645975 -0.208354 -0.99501 -0.0244514 -0.204722 -0.99501 
-0.0145563 -0.188179 -0.99501 0.015215 -0.239369 -0.995012 0.00922056 -0.226938 -0.99501 
0.0346606 -0.232882 -0.99501 0.022627 -0.20118 -0.99501 0.0188457 -0.229748 -0.99501 
0.0219869 -0.189104 -0.99501 0.0233881 -0.220724 -0.99501 0.0306784 -0.212684 -0.99501 
0.00647986 -0.20993 -0.99501 0.0300244 -0.182981 -0.99501 0.0487572 -0.193843 -0.99501 
0.0260591 -0.238317 -0.99501 0.0438117 -0.213504 -0.99501 0.0556559 -0.206447 -0.99501 
0.058664 -0.189092 -0.99501 0.0441508 -0.228707 -0.99501 0.0394195 -0.187431 -0.99501 
0.053848 -0.220833 -0.99501 0.0343576 -0.222713 -0.99501 0.00881865 -0.182955 -0.990032 
0.0893334 -0.238094 -0.99501 0.0610069 -0.23887 -0.99501 0.0617582 -0.227161 -0.99501 
0.0634475 -0.216286 -0.99501 0.0689346 -0.186685 -0.99501 0.0665531 -0.198696 -0.99501 
0.0771384 -0.231757 -0.99501 0.0716812 -0.21007 -0.99501 0.109569 -0.207471 -0.99501 
0.0854261 -0.22503 -0.99501 0.104297 -0.23734 -0.990032 0.0984944 -0.188525 -0.99501 
0.0829044 -0.181426 -0.99501 0.0812181 -0.213521 -0.99501 0.0967034 -0.208518 -0.995003 
0.0963575 -0.22468 -0.995018 0.0751956 -0.221914 -0.99501 0.0774701 -0.201563 -0.99501 
0.0870472 -0.204519 -0.99501 0.10136 -0.199605 -0.995009 0.115754 -0.19944 -0.99501 
0.109012 -0.219494 -0.994796 0.111256 -0.187994 -0.99501 0.0997954 -0.217709 -0.982038 
0.117581 -0.213838 -0.99501 0.167717 -0.237515 -0.986596 0.122918 -0.232194 -0.99501 
0.153758 -0.230547 -0.99501 0.132025 -0.238423 -0.99501 0.143556 -0.231424 -0.995016 
0.148722 -0.220024 -0.99501 0.134456 -0.202676 -0.99501 0.162078 -0.22459 -0.994928 
0.133055 -0.221961 -0.99003 0.126641 -0.209352 -0.99501 0.14607 -0.185842 -0.99501 
0.151433 -0.202438 -0.99501 0.166105 -0.190877 -0.995008 0.172219 -0.182963 -0.995009 
0.174119 -0.2014 -0.99501 0.143432 -0.195729 -0.99501 0.154883 -0.1924 -0.99501 
0.174152 -0.214378 -0.99501 0.161668 -0.199936 -0.995031 0.123693 -0.192397 -0.99501 
0.134086 -0.19196 -0.99501 0.174746 -0.224643 -0.99501 0.172869 -0.239035 -0.995015 
0.163205 -0.234524 -0.995015 0.159691 -0.212178 -0.986647 0.141894 -0.209749 -0.99501 
0.123467 -0.181885 -0.99501 0.191226 -0.195989 -0.986825 0.182991 -0.190948 -0.995011 
0.190262 -0.201395 -0.995109 0.19418 -0.220013 -0.99501 0.199129 -0.21096 -0.99501 
0.184178 -0.218683 -0.99501 0.209499 -0.207458 -0.99501 0.21912 -0.197124 -0.99501 
0.190915 -0.184053 -0.99501 0.182427 -0.207694 -0.99501 0.200251 -0.200748 -0.99501 
0.20248 -0.187752 -0.99501 0.209137 -0.196098 -0.99501 0.215436 -0.187647 -0.99501 
0.225891 -0.18876 -0.99501 0.182526 -0.231547 -0.99501 0.23247 -0.180252 -0.99501 
-0.255419 -0.144449 -0.99501 -0.251562 -0.153886 -0.99501 -0.245115 -0.162065 -0.99501 
-0.264913 -0.129062 -0.99501 -0.242801 -0.133115 -0.990042 -0.255889 -0.123566 -0.99501 
-0.230942 -0.163357 -0.995008 -0.21296 -0.177589 -0.99501 -0.238395 -0.170468 -0.995012 
-0.200622 -0.155105 -0.99501 -0.187586 -0.141724 -0.99501 -0.207786 -0.141653 -0.99501 
-0.229011 -0.150058 -0.99501 -0.18178 -0.131208 -0.99501 -0.222589 -0.127822 -0.99501 
-0.218339 -0.16417 -0.99501 -0.218626 -0.145879 -0.99501 -0.232121 -0.12115 -0.99501 
-0.187154 -0.153296 -0.99501 -0.175445 -0.140749 -0.99501 -0.138094 -0.154924 -0.99501 
-0.148482 -0.131263 -0.99501 -0.154231 -0.158065 -0.99501 -0.145394 -0.143039 -0.99501 
-0.138003 -0.131156 -0.99501 -0.144245 -0.174675 -0.99501 -0.121893 -0.128893 -0.99501 
-0.134258 -0.145397 -0.99501 -0.160917 -0.139286 -0.99501 -0.12764 -0.137206 -0.99501 
-0.164596 -0.129531 -0.99501 -0.130974 -0.122434 -0.99501 -0.135722 -0.167415 -0.99501 
-0.120847 -0.146973 -0.99501 -0.0874881 -0.165861 -0.99501 -0.114163 -0.138934 -0.99501 
-0.077108 -0.158892 -0.99501 -0.0671015 -0.157575 -0.99501 -0.0982763 -0.150881 -0.99501 
-0.110858 -0.176057 -0.989875 -0.114547 -0.122038 -0.99501 -0.110428 -0.150497 -0.99501 
-0.104167 -0.141723 -0.99501 -0.0967195 -0.161453 -0.995012 -0.0939859 -0.14133 -0.99501 
-0.106153 -0.131719 -0.99501 -0.0791249 -0.142831 -0.990032 -0.0884447 -0.132097 -0.99501 
-0.0680098 -0.125927 -0.99501 -0.0880372 -0.154806 -0.99501 -0.0808825 -0.12349 -0.99501 
-0.0658555 -0.176983 -0.99501 -0.0647759 -0.144667 -0.99501 -0.0970837 -0.127016 -0.99501 
-0.0565954 -0.158485 -0.995009 -0.0512529 -0.173388 -0.990835 -0.0451231 -0.158708 -0.99501 
-0.0350124 -0.172128 -0.99501 -0.0326002 -0.161982 -0.995009 -0.0176884 -0.164372 -0.99501 
-0.0534345 -0.142 -0.99501 -0.0596532 -0.133149 -0.99501 -0.0577995 -0.121973 -0.99501 
-0.0336475 -0.151931 -0.995011 -0.0122912 -0.142293 -0.99501 -0.0138599 -0.174257 -0.99501 
-0.00327186 -0.146724 -0.99501 -0.0250111 -0.175797 -0.99501 -0.0445564 -0.135863 -0.99501 
-0.0239062 -0.155305 -0.99501 -0.0446771 -0.147139 -0.99501 -0.0116343 -0.154095 -0.99501 
-0.00738726 -0.129433 -0.99501 -0.00595036 -0.16626 -0.99501 -0.0344337 -0.139095 -0.99501 
-0.000482392 -0.136675 -0.99501 -0.0224625 -0.144783 -0.99501 -0.0449606 -0.122593 -0.99501 
-0.0188184 -0.13353 -0.99501 -0.0308671 -0.121321 -0.990032 0.000402145 -0.122486 -0.99501 
0.051036 -0.173012 -0.99501 0.000256385 -0.156315 -0.99501 0.0220841 -0.176023 -0.99501 
0.015264 -0.16866 -0.99501 0.010731 -0.149023 -0.99501 0.00972749 -0.139054 -0.99501 
0.0269462 -0.16143 -0.99501 0.0207435 -0.153195 -0.99501 0.0287718 -0.144552 -0.99501 
0.0329008 -0.173106 -0.99501 0.0390418 -0.144348 -0.99501 0.0108941 -0.159565 -0.99501 
[...]
POINT_DATA 1488
FIELD FieldData 7
id 1 1488 int
1363 202 1136 1289 948 135 51 909 572 
287 112 589 649 946 78 849 162 1100 
625 1003 936 1298 325 1470 246 918 843 
1345 1355 196 536 562 122 17 533 546 
37 706 759 1124 315 1264 588 1044 723 
698 1333 797 687 664 989 1161 402 408 
183 1258 1373 583 1061 1081 677 1139 1269 
1187 1415 1135 867 328 364 1489 1374 740 
653 35 473 145 1497 930 680 472 194 
266 977 1253 1239 548 1172 1337 1048 933 
790 944 1473 1453 1306 366 718 1196 1036 
702 1056 1194 507 577 900 1144 486 826 
416 1440 484 376 144 322 1018 97 1234 
1490 830 770 949 1211 505 1272 1437 973 
265 573 294 1118 77 877 987 1256 291 
1301 1021 543 906 170 429 1452 788 350 
454 886 943 725 851 214 1113 683 634 
212 310 1491 1308 1267 632 1128 1229 1409 
921 985 811 1086 1027 186 31 1012 26 
561 801 158 719 1057 362 371 379 864 
477 25 624 373 532 172 329 127 1068 
1412 540 911 1244 942 1143 545 1346 525 
1232 1477 838 979 1189 1359 5 646 462 
636 1200 476 1318 455 915 1454 1300 179 
869 297 1052 1414 582 1121 163 528 1448 
1045 874 1462 926 898 334 286 1469 309 
1483 1498 726 1370 1468 76 735 1314 452 
1123 579 1236 929 888 426 1387 704 530 
972 1097 568 556 737 1428 842 1163 952 
1213 1467 458 1375 338 438 453 1159 1164 
732 1443 666 333 818 1242 467 707 506 
585 1481 777 882 615 348 519 1145 685 
990 681 1360 802 1022 389 925 574 39 
440 1367 850 810 206 781 358 395 1341 
674 1216 645 175 809 1365 711 128 631 
657 1492 881 1110 28 620 760 490 263 
1401 1221 647 691 1202 1166 292 1274 313 
622 1158 967 401 1011 655 1287 1090 991 
67 306 34 1073 1150 1175 827 277 1023 
123 210 786 1257 131 840 1215 709 857 
1188 1321 551 1466 629 1347 182 216 669 
261 409 575 518 1273 337 1376 1331 48 
1075 1179 141 1130 225 758 703 495 934 
696 1260 73 815 710 151 1366 230 130 
118 94 1051 65 957 699 60 993 730 
832 817 1246 305 414 419 195 1102 1394 
763 1191 1030 1020 892 1479 764 1241 746 
613 605 1060 1093 1286 1245 1388 917 544 
159 1458 55 446 443 441 93 841 693 
964 84 1439 1410 1108 243 554 178 1450 
800 678 101 866 1395 70 33 527 749 
119 1105 1034 950 470 1168 1223 1174 908 
116 1340 708 792 1131 1111 226 72 499 
267 1091 10 9 375 983 1182 1074 1307 
335 108 1285 602 165 343 1411 331 1002 
1325 137 448 1214 1261 512 1210 330 1114 
521 1434 1446 357 321 539 779 157 821 
396 451 804 224 3 1447 662 1249 250 
765 423 47 169 1116 1148 238 1165 1416 
140 30 1252 219 509 524 504 819 865 
1371 1400 276 1071 434 1038 485 873 515 
1151 399 856 1361 1353 1033 378 1369 675 
1271 672 858 8 211 471 489 6 463 
1149 198 1119 74 1311 951 542 514 248 
354 1380 120 411 982 1425 252 975 1222 
68 432 1324 372 360 1309 1431 1417 1423 
566 871 16 594 995 870 139 1160 40 
304 931 534 1040 992 1224 403 912 181 
720 394 1493 618 233 1185 713 259 970 
285 1104 256 347 1419 397 1418 4 831 
1208 919 311 1461 523 750 855 1032 475 
428 234 965 146 500 803 508 1014 80 
939 1441 661 814 1432 580 976 1039 902 
302 1352 418 547 825 1460 928 1304 795 
1207 1070 89 600 229 1142 1077 1310 1323 
1354 370 115 897 1016 1204 424 1055 721 
272 387 1328 1344 502 599 513 616 340 
1343 392 1047 190 1226 323 257 1157 1079 
610 1082 1262 956 1183 56 1008 193 345 
368 628 1288 1001 755 745 461 1430 1457 
184 155 999 317 626 742 442 907 752 
1480 12 1141 1356 1476 1297 32 497 43 
836 100 623 1154 1006 744 887 217 862 
213 405 1035 522 103 95 104 45 1065 
769 883 1120 1377 1485 1404 665 903 274 
642 249 83 290 963 1389 606 966 644 
242 66 1007 351 771 1106 90 129 117 
558 650 187 312 1248 20 1255 673 480 
134 793 571 847 1251 273 1212 940 889 
772 598 679 336 349 517 59 1195 1299 
913 1072 878 932 1326 251 609 823 1146 
282 1228 1398 1184 923 494 905 1444 592 
1427 820 612 1433 614 643 1296 422 945 
652 531 264 958 564 374 516 1342 717 
587 71 885 468 369 1076 222 147 899 
834 824 1392 812 767 447 491 608 483 
168 1405 596 712 24 1137 729 538 1465 
535 314 959 1429 1499 69 853 1390 64 
1420 731 1312 1403 1126 789 637 1230 974 
1198 734 299 355 924 1186 245 1290 464 
938 1117 384 439 197 91 1067 627 1162 
941 138 604 695 81 716 1122 783 776 
1129 200 1442 239 433 228 1080 82 293 
1177 1278 191 520 1013 171 935 676 410 
361 621 1464 1276 1028 748 1283 1275 641 
1435 353 875 449 1156 218 651 1096 498 
962 247 1378 324 861 421 53 280 1317 
303 635 684 1227 806 7 98 1024 1169 
244 492 188 109 1475 563 978 153 1472 
126 1263 766 1279 260 501 87 1303 1099 
1176 241 125 557 1225 768 19 757 363 
1206 1426 1095 722 1085 1384 1335 1083 955 
270 663 1235 377 1292 391 231 986 682 
481 15 1338 611 1173 1247 1474 1046 670 
654 893 415 469 1284 837 398 953 601 
192 1112 968 567 1327 916 1488 1266 739 
75 648 1243 633 603 511 1291 762 607 
254 319 339 36 947 1219 1218 586 828 
185 1332 630 1487 584 1478 346 595 327 
342 773 1025 1066 1203 1089 1494 382 550 
835 988 180 390 444 482 581 984 1170 
1484 278 1062 1456 1000 1152 1240 552 1486 
271 914 79 258 658 541 1413 1319 667 
787 113 1322 38 798 281 1455 1436 1265 
488 1295 92 386 927 1092 307 430 1220 
784 782 1050 177 1270 980 44 1 901 
714 890 1171 619 160 1064 236 308 167 
1058 686 1459 845 176 393 288 174 63 
1495 700 107 1059 365 1153 969 1496 833 
807 227 1393 937 88 640 1329 148 1009 
275 894 1054 656 859 316 279 590 565 
221 215 1364 1334 1069 237 1281 617 829 
1197 296 1305 701 1445 671 1087 289 1043 
689 813 11 150 1391 1127 381 269 1181 
262 1351 255 41 724 593 496 223 796 
1372 549 1180 29 1109 1088 1138 1357 1382 
85 1449 1041 896 99 133 465 1103 799 
1438 1349 114 413 578 808 1254 320 1320 
121 1293 960 417 1134 1209 816 1397 805 
466 961 106 111 694 1019 846 388 478 
436 1424 996 1178 778 1015 1277 852 1358 
400 284 14 1336 295 738 300 164 406 
891 1315 1407 920 161 367 998 1402 775 
209 728 1049 1231 1192 298 741 156 1217 
591 569 407 1167 1205 751 785 1302 1201 
1330 58 136 1190 1280 352 445 204 510 
981 240 1313 1084 774 18 1294 437 435 
124 1471 690 57 1408 1316 503 884 895 
96 383 207 1107 235 22 318 880 208 
456 143 201 412 1017 1031 1259 791 879 
1199 1132 529 21 848 142 780 2 994 
537 638 1029 597 1463 1381 1010 1094 50 
733 1078 526 1037 743 457 727 1385 1238 
431 326 268 555 1383 1115 736 1233 359 
922 854 1193 102 42 705 753 570 493 
173 839 356 1125 220 1451 203 232 844 
1386 754 971 747 1350 1053 692 715 1155 
380 1098 659 1004 1348 46 450 1422 154 
660 868 149 404 105 1005 420 86 479 
253 1063 460 1482 23 52 1268 576 425 
49 1406 1339 61 553 863 54 474 13 
27 199 756 668 910 1399 166 1368 487 
794 283 1026 876 1133 332 904 1362 822 
62 697 872 559 761 997 639 1101 344 
560 152 1421 860 1282 341 1042 1396 385 
1147 1379 1140 
type 1 1488 int
1 1 1 1 1 1 1 1 1 
1 1 1 1 1 1 1 1 1 
1 1 1 1 1 1 1 1 1 
1 1 1 1 1 1 1 1 1 
1 1 1 1 1 1 1 1 1 
1 1 1 1 1 1 1 1 1 
1 1 1 1 1 1 1 1 1 
1 1 1 1 1 1 1 1 1 
1 1 1 1 1 1 1 1 1 
1 1 1 1 1 1 1 1 1 
1 1 1 1 1 1 1 1 1 
1 1 1 1 1 1 1 1 1 
1 1 1 1 1 1 1 1 1 
1 1 1 1 1 1 1 1 1 
1 1 1 1 1 1 1 1 1 
1 1 1 1 1 1 1 1 1 
1 1 1 1 1 1 1 1 1 
1 1 1 1 1 1 1 1 1 
1 1 1 1 1 1 1 1 1 
1 1 1 1 1 1 1 1 1 
1 1 1 1 1 1 1 1 1 
1 1 1 1 1 1 1 1 1 
1 1 1 1 1 1 1 1 1 
1 1 1 1 1 1 1 1 1 
1 1 1 1 1 1 1 1 1 
1 1 1 1 1 1 1 1 1 
1 1 1 1 1 1 1 1 1 
1 1 1 1 1 1 1 1 1 
1 1 1 1 1 1 1 1 1 
1 1 1 1 1 1 1 1 1 
1 1 1 1 1 1 1 1 1 
1 1 1 1 1 1 1 1 1 
1 1 1 1 1 1 1 1 1 
1 1 1 1 1 1 1 1 1 
1 1 1 1 1 1 1 1 1 
1 1 1 1 1 1 1 1 1 
1 1 1 1 1 1 1 1 1 
1 1 1 1 1 1 1 1 1 
1 1 1 1 1 1 1 1 1 
1 1 1 1 1 1 1 1 1 
1 1 1 1 1 1 1 1 1 
1 1 1 1 1 1 1 1 1 
1 1 1 1 1 1 1 1 1 
1 1 1 1 1 1 1 1 1 
1 1 1 1 1 1 1 1 1 
1 1 1 1 1 1 1 1 1 
1 1 1 1 1 1 1 1 1 
1 1 1 1 1 1 1 1 1 
1 1 1 1 1 1 1 1 1 
1 1 1 1 1 1 1 1 1 
1 1 1 1 1 1 1 1 1 
1 1 1 1 1 1 1 1 1 
1 1 1 1 1 1 1 1 1 
1 1 1 1 1 1 1 1 1 
1 1 1 1 1 1 1 1 1 
1 1 1 1 1 1 1 1 1 
1 1 1 1 1 1 1 1 1 
1 1 1 1 1 1 1 1 1 
1 1 1 1 1 1 1 1 1 
1 1 1 1 1 1 1 1 1 
1 1 1 1 1 1 1 1 1 
1 1 1 1 1 1 1 1 1 
1 1 1 1 1 1 1 1 1 
1 1 1 1 1 1 1 1 1 
1 1 1 1 1 1 1 1 1 
1 1 1 1 1 1 1 1 1 
1 1 1 1 1 1 1 1 1 
1 1 1 1 1 1 1 1 1 
1 1 1 1 1 1 1 1 1 
1 1 1 1 1 1 1 1 1 
1 1 1 1 1 1 1 1 1 
1 1 1 1 1 1 1 1 1 
1 1 1 1 1 1 1 1 1 
1 1 1 1 1 1 1 1 1 
1 1 1 1 1 1 1 1 1 
1 1 1 1 1 1 1 1 1 
1 1 1 1 1 1 1 1 1 
1 1 1 1 1 1 1 1 1 
1 1 1 1 1 1 1 1 1 
1 1 1 1 1 1 1 1 1 
1 1 1 1 1 1 1 1 1 
1 1 1 1 1 1 1 1 1 
1 1 1 1 1 1 1 1 1 
1 1 1 1 1 1 1 1 1 
1 1 1 1 1 1 1 1 1 
1 1 1 1 1 1 1 1 1 
1 1 1 1 1 1 1 1 1 
1 1 1 1 1 1 1 1 1 
1 1 1 1 1 1 1 1 1 
1 1 1 1 1 1 1 1 1 
1 1 1 1 1 1 1 1 1 
1 1 1 1 1 1 1 1 1 
1 1 1 1 1 1 1 1 1 
1 1 1 1 1 1 1 1 1 
1 1 1 1 1 1 1 1 1 
1 1 1 1 1 1 1 1 1 
1 1 1 1 1 1 1 1 1 
1 1 1 1 1 1 1 1 1 
1 1 1 1 1 1 1 1 1 
1 1 1 1 1 1 1 1 1 
1 1 1 1 1 1 1 1 1 
1 1 1 1 1 1 1 1 1 
1 1 1 1 1 1 1 1 1 
1 1 1 1 1 1 1 1 1 
1 1 1 1 1 1 1 1 1 
1 1 1 1 1 1 1 1 1 
1 1 1 1 1 1 1 1 1 
1 1 1 1 1 1 1 1 1 
1 1 1 1 1 1 1 1 1 
1 1 1 1 1 1 1 1 1 
1 1 1 1 1 1 1 1 1 
1 1 1 1 1 1 1 1 1 
1 1 1 1 1 1 1 1 1 
1 1 1 1 1 1 1 1 1 
1 1 1 1 1 1 1 1 1 
1 1 1 1 1 1 1 1 1 
1 1 1 1 1 1 1 1 1 
1 1 1 1 1 1 1 1 1 
1 1 1 1 1 1 1 1 1 
1 1 1 1 1 1 1 1 1 
1 1 1 1 1 1 1 1 1 
1 1 1 1 1 1 1 1 1 
1 1 1 1 1 1 1 1 1 
1 1 1 1 1 1 1 1 1 
1 1 1 1 1 1 1 1 1 
1 1 1 1 1 1 1 1 1 
1 1 1 1 1 1 1 1 1 
1 1 1 1 1 1 1 1 1 
1 1 1 1 1 1 1 1 1 
1 1 1 1 1 1 1 1 1 
1 1 1 1 1 1 1 1 1 
1 1 1 1 1 1 1 1 1 
1 1 1 1 1 1 1 1 1 
1 1 1 1 1 1 1 1 1 
1 1 1 1 1 1 1 1 1 
1 1 1 1 1 1 1 1 1 
1 1 1 1 1 1 1 1 1 
1 1 1 1 1 1 1 1 1 
1 1 1 1 1 1 1 1 1 
1 1 1 1 1 1 1 1 1 
1 1 1 1 1 1 1 1 1 
1 1 1 1 1 1 1 1 1 
1 1 1 1 1 1 1 1 1 
1 1 1 1 1 1 1 1 1 
1 1 1 1 1 1 1 1 1 
1 1 1 1 1 1 1 1 1 
1 1 1 1 1 1 1 1 1 
1 1 1 1 1 1 1 1 1 
1 1 1 1 1 1 1 1 1 
1 1 1 1 1 1 1 1 1 
1 1 1 1 1 1 1 1 1 
1 1 1 1 1 1 1 1 1 
1 1 1 1 1 1 1 1 1 
1 1 1 1 1 1 1 1 1 
1 1 1 1 1 1 1 1 1 
1 1 1 1 1 1 1 1 1 
1 1 1 1 1 1 1 1 1 
1 1 1 1 1 1 1 1 1 
1 1 1 1 1 1 1 1 1 
1 1 1 1 1 1 1 1 1 
1 1 1 1 1 1 1 1 1 
1 1 1 1 1 1 1 1 1 
1 1 1 1 1 1 1 1 1 
1 1 1 1 1 1 1 1 1 
1 1 1 1 1 1 1 1 1 
1 1 1 
i 3 1488 int
0 0 0 0 0 0 0 0 0 
0 0 0 0 0 0 0 0 0 
0 0 0 0 0 0 0 0 0 
0 0 0 0 0 0 0 0 0 
0 0 0 0 0 0 0 0 0 
0 0 0 0 0 0 0 0 0 
0 0 0 0 0 0 0 0 0 
0 0 0 0 0 0 0 0 0 
0 0 0 0 0 0 0 0 0 
0 0 0 0 0 0 0 0 0 
0 0 0 0 0 0 0 0 0 
0 0 0 0 0 0 0 0 0 
0 0 0 0 0 0 0 0 0 
0 0 0 0 0 0 0 0 0 
0 0 0 0 0 0 0 0 0 
0 0 0 0 0 0 0 0 0 
0 0 0 0 0 0 0 0 0 
0 0 0 0 0 0 0 0 0 
0 0 0 0 0 0 0 0 0 
0 0 0 0 0 0 0 0 0 
0 0 0 0 0 0 0 0 0 
0 0 0 0 0 0 0 0 0 
0 0 0 0 0 0 0 0 0 
0 0 0 0 0 0 0 0 0 
0 0 0 0 0 0 0 0 0 
0 0 0 0 0 0 0 0 0 
0 0 0 0 0 0 0 0 0 
0 0 0 0 0 0 0 0 0 
0 0 0 0 0 0 0 0 0 
0 0 0 0 0 0 0 0 0 
0 0 0 0 0 0 0 0 0 
0 0 0 0 0 0 0 0 0 
0 0 0 0 0 0 0 0 0 
0 0 0 0 0 0 0 0 0 
0 0 0 0 0 0 0 0 0 
0 0 0 0 0 0 0 0 0 
0 0 0 0 0 0 0 0 0 
0 0 0 0 0 0 0 0 0 
0 0 0 0 0 0 0 0 0 
0 0 0 0 0 0 0 0 0 
0 0 0 0 0 0 0 0 0 
0 0 0 0 0 0 0 0 0 
0 0 0 0 0 0 0 0 0 
0 0 0 0 0 0 0 0 0 
0 0 0 0 0 0 0 0 0 
0 0 0 0 0 0 0 0 0 
0 0 0 0 0 0 0 0 0 
0 0 0 0 0 0 0 0 0 
0 0 0 0 0 0 0 0 0 
0 0 0 0 0 0 0 0 0 
0 0 0 0 0 0 0 0 0 
0 0 0 0 0 0 0 0 0 
0 0 0 0 0 0 0 0 0 
0 0 0 0 0 0 0 0 0 
0 0 0 0 0 0 0 0 0 
0 0 0 0 0 0 0 0 0 
0 0 0 0 0 0 0 0 0 
0 0 0 0 0 0 0 0 0 
0 0 0 0 0 0 0 0 0 
0 0 0 0 0 0 0 0 0 
0 0 0 0 0 0 0 0 0 
0 0 0 0 0 0 0 0 0 
0 0 0 0 0 0 0 0 0 
0 0 0 0 0 0 0 0 0 
0 0 0 0 0 0 0 0 0 
0 0 0 0 0 0 0 0 0 
0 0 0 0 0 0 0 0 0 
0 0 0 0 0 0 0 0 0 
0 0 0 0 0 0 0 0 0 
0 0 0 0 0 0 0 0 0 
0 0 0 0 0 0 0 0 0 
0 0 0 0 0 0 0 0 0 
0 0 0 0 0 0 0 0 0 
0 0 0 0 0 0 0 0 0 
0 0 0 0 0 0 0 0 0 
0 0 0 0 0 0 0 0 0 
0 0 0 0 0 0 0 0 0 
0 0 0 0 0 0 0 0 0 
0 0 0 0 0 0 0 0 0 
0 0 0 0 0 0 0 0 0 
0 0 0 0 0 0 0 0 0 
0 0 0 0 0 0 0 0 0 
0 0 0 0 0 0 0 0 0 
0 0 0 0 0 0 0 0 0 
0 0 0 0 0 0 0 0 0 
0 0 0 0 0 0 0 0 0 
0 0 0 0 0 0 0 0 0 
0 0 0 0 0 0 0 0 0 
0 0 0 0 0 0 0 0 0 
0 0 0 0 0 0 0 0 0 
0 0 0 0 0 0 0 0 0 
0 0 0 0 0 0 0 0 0 
0 0 0 0 0 0 0 0 0 
0 0 0 0 0 0 0 0 0 
0 0 0 0 0 0 0 0 0 
0 0 0 0 0 0 0 0 0 
0 0 0 0 0 0 0 0 0 
0 0 0 0 0 0 0 0 0 
0 0 0 0 0 0 0 0 0 
0 0 0 0 0 0 0 0 0 
0 0 0 0 0 0 0 0 0 
0 0 0 0 0 0 0 0 0 
0 0 0 0 0 0 0 0 0 
0 0 0 0 0 0 0 0 0 
0 0 0 0 0 0 0 0 0 
0 0 0 0 0 0 0 0 0 
0 0 0 0 0 0 0 0 0 
0 0 0 0 0 0 0 0 0 
0 0 0 0 0 0 0 0 0 
0 0 0 0 0 0 0 0 0 
0 0 0 0 0 0 0 0 0 
0 0 0 0 0 0 0 0 0 
0 0 0 0 0 0 0 0 0 
0 0 0 0 0 0 0 0 0 
0 0 0 0 0 0 0 0 0 
0 0 0 0 0 0 0 0 0 
0 0 0 0 0 0 0 0 0 
0 0 0 0 0 0 0 0 0 
0 0 0 0 0 0 0 0 0 
0 0 0 0 0 0 0 0 0 
0 0 0 0 0 0 0 0 0 
0 0 0 0 0 0 0 0 0 
0 0 0 0 0 0 0 0 0 
0 0 0 0 0 0 0 0 0 
0 0 0 0 0 0 0 0 0 
0 0 0 0 0 0 0 0 0 
0 0 0 0 0 0 0 0 0 
0 0 0 0 0 0 0 0 0 
0 0 0 0 0 0 0 0 0 
0 0 0 0 0 0 0 0 0 
0 0 0 0 0 0 0 0 0 
0 0 0 0 0 0 0 0 0 
0 0 0 0 0 0 0 0 0 
0 0 0 0 0 0 0 0 0 
0 0 0 0 0 0 0 0 0 
0 0 0 0 0 0 0 0 0 
0 0 0 0 0 0 0 0 0 
0 0 0 0 0 0 0 0 0 
0 0 0 0 0 0 0 0 0 
0 0 0 0 0 0 0 0 0 
0 0 0 0 0 0 0 0 0 
0 0 0 0 0 0 0 0 0 
0 0 0 0 0 0 0 0 0 
0 0 0 0 0 0 0 0 0 
0 0 0 0 0 0 0 0 0 
0 0 0 0 0 0 0 0 0 
0 0 0 0 0 0 0 0 0 
0 0 0 0 0 0 0 0 0 
0 0 0 0 0 0 0 0 0 
0 0 0 0 0 0 0 0 0 
0 0 0 0 0 0 0 0 0 
0 0 0 0 0 0 0 0 0 
0 0 0 0 0 0 0 0 0 
0 0 0 0 0 0 0 0 0 
0 0 0 0 0 0 0 0 0 
0 0 0 0 0 0 0 0 0 
0 0 0 0 0 0 0 0 0 
0 0 0 0 0 0 0 0 0 
0 0 0 0 0 0 0 0 0 
0 0 0 0 0 0 0 0 0 
0 0 0 0 0 0 0 0 0 
0 0 0 0 0 0 0 0 0 
0 0 0 0 0 0 0 0 0 
0 0 0 0 0 0 0 0 0 
0 0 0 0 0 0 0 0 0 
0 0 0 0 0 0 0 0 0 
0 0 0 0 0 0 0 0 0 
0 0 0 0 0 0 0 0 0 
0 0 0 0 0 0 0 0 0 
0 0 0 0 0 0 0 0 0 
0 0 0 0 0 0 0 0 0 
0 0 0 0 0 0 0 0 0 
0 0 0 0 0 0 0 0 0 
0 0 0 0 0 0 0 0 0 
0 0 0 0 0 0 0 0 0 
0 0 0 0 0 0 0 0 0 
0 0 0 0 0 0 0 0 0 
0 0 0 0 0 0 0 0 0 
0 0 0 0 0 0 0 0 0 
0 0 0 0 0 0 0 0 0 
0 0 0 0 0 0 0 0 0 
0 0 0 0 0 0 0 0 0 
0 0 0 0 0 0 0 0 0 
0 0 0 0 0 0 0 0 0 
0 0 0 0 0 0 0 0 0 
0 0 0 0 0 0 0 0 0 
0 0 0 0 0 0 0 0 0 
0 0 0 0 0 0 0 0 0 
0 0 0 0 0 0 0 0 0 
0 0 0 0 0 0 0 0 0 
0 0 0 0 0 0 0 0 0 
0 0 0 0 0 0 0 0 0 
0 0 0 0 0 0 0 0 0 
0 0 0 0 0 0 0 0 0 
0 0 0 0 0 0 0 0 0 
0 0 0 0 0 0 0 0 0 
0 0 0 0 0 0 0 0 0 
0 0 0 0 0 0 0 0 0 
0 0 0 0 0 0 0 0 0 
0 0 0 0 0 0 0 0 0 
0 0 0 0 0 0 0 0 0 
0 0 0 0 0 0 0 0 0 
0 0 0 0 0 0 0 0 0 
0 0 0 0 0 0 0 0 0 
0 0 0 0 0 0 0 0 0 
0 0 0 0 0 0 0 0 0 
0 0 0 0 0 0 0 0 0 
0 0 0 0 0 0 0 0 0 
0 0 0 0 0 0 0 0 0 
0 0 0 0 0 0 0 0 0 
0 0 0 0 0 0 0 0 0 
0 0 0 0 0 0 0 0 0 
0 0 0 0 0 0 0 0 0 
0 0 0 0 0 0 0 0 0 
0 0 0 0 0 0 0 0 0 
0 0 0 0 0 0 0 0 0 
0 0 0 0 0 0 0 0 0 
0 0 0 0 0 0 0 0 0 
0 0 0 0 0 0 0 0 0 
0 0 0 0 0 0 0 0 0 
0 0 0 0 0 0 0 0 0 
0 0 0 0 0 0 0 0 0 
0 0 0 0 0 0 0 0 0 
0 0 0 0 0 0 0 0 0 
0 0 0 0 0 0 0 0 0 
0 0 0 0 0 0 0 0 0 
0 0 0 0 0 0 0 0 0 
0 0 0 0 0 0 0 0 0 
0 0 0 0 0 0 0 0 0 
0 0 0 0 0 0 0 0 0 
0 0 0 0 0 0 0 0 0 
0 0 0 0 0 0 0 0 0 
0 0 0 0 0 0 0 0 0 
0 0 0 0 0 0 0 0 0 
0 0 0 0 0 0 0 0 0 
0 0 0 0 0 0 0 0 0 
0 0 0 0 0 0 0 0 0 
0 0 0 0 0 0 0 0 0 
0 0 0 0 0 0 0 0 0 
0 0 0 0 0 0 0 0 0 
0 0 0 0 0 0 0 0 0 
0 0 0 0 0 0 0 0 0 
0 0 0 0 0 0 0 0 0 
0 0 0 0 0 0 0 0 0 
0 0 0 0 0 0 0 0 0 
0 0 0 0 0 0 0 0 0 
0 0 0 0 0 0 0 0 0 
0 0 0 0 0 0 0 0 0 
0 0 0 0 0 0 0 0 0 
0 0 0 0 0 0 0 0 0 
0 0 0 0 0 0 0 0 0 
0 0 0 0 0 0 0 0 0 
0 0 0 0 0 0 0 0 0 
0 0 0 0 0 0 0 0 0 
0 0 0 0 0 0 0 0 0 
0 0 0 0 0 0 0 0 0 
0 0 0 0 0 0 0 0 0 
0 0 0 0 0 0 0 0 0 
0 0 0 0 0 0 0 0 0 
0 0 0 0 0 0 0 0 0 
0 0 0 0 0 0 0 0 0 
0 0 0 0 0 0 0 0 0 
0 0 0 0 0 0 0 0 0 
0 0 0 0 0 0 0 0 0 
0 0 0 0 0 0 0 0 0 
0 0 0 0 0 0 0 0 0 
0 0 0 0 0 0 0 0 0 
0 0 0 0 0 0 0 0 0 
0 0 0 0 0 0 0 0 0 
0 0 0 0 0 0 0 0 0 
0 0 0 0 0 0 0 0 0 
0 0 0 0 0 0 0 0 0 
0 0 0 0 0 0 0 0 0 
0 0 0 0 0 0 0 0 0 
0 0 0 0 0 0 0 0 0 
0 0 0 0 0 0 0 0 0 
0 0 0 0 0 0 0 0 0 
0 0 0 0 0 0 0 0 0 
0 0 0 0 0 0 0 0 0 
0 0 0 0 0 0 0 0 0 
0 0 0 0 0 0 0 0 0 
0 0 0 0 0 0 0 0 0 
0 0 0 0 0 0 0 0 0 
0 0 0 0 0 0 0 0 0 
0 0 0 0 0 0 0 0 0 
0 0 0 0 0 0 0 0 0 
0 0 0 0 0 0 0 0 0 
0 0 0 0 0 0 0 0 0 
0 0 0 0 0 0 0 0 0 
0 0 0 0 0 0 0 0 0 
0 0 0 0 0 0 0 0 0 
0 0 0 0 0 0 0 0 0 
0 0 0 0 0 0 0 0 0 
0 0 0 0 0 0 0 0 0 
0 0 0 0 0 0 0 0 0 
0 0 0 0 0 0 0 0 0 
0 0 0 0 0 0 0 0 0 
0 0 0 0 0 0 0 0 0 
0 0 0 0 0 0 0 0 0 
0 0 0 0 0 0 0 0 0 
0 0 0 0 0 0 0 0 0 
0 0 0 0 0 0 0 0 0 
0 0 0 0 0 0 0 0 0 
0 0 0 0 0 0 0 0 0 
0 0 0 0 0 0 0 0 0 
0 0 0 0 0 0 0 0 0 
0 0 0 0 0 0 0 0 0 
0 0 0 0 0 0 0 0 0 
0 0 0 0 0 0 0 0 0 
0 0 0 0 0 0 0 0 0 
0 0 0 0 0 0 0 0 0 
0 0 0 0 0 0 0 0 0 
0 0 0 0 0 0 0 0 0 
0 0 0 0 0 0 0 0 0 
0 0 0 0 0 0 0 0 0 
0 0 0 0 0 0 0 0 0 
0 0 0 0 0 0 0 0 0 
0 0 0 0 0 0 0 0 0 
0 0 0 0 0 0 0 0 0 
0 0 0 0 0 0 0 0 0 
0 0 0 0 0 0 0 0 0 
0 0 0 0 0 0 0 0 0 
0 0 0 0 0 0 0 0 0 
0 0 0 0 0 0 0 0 0 
0 0 0 0 0 0 0 0 0 
0 0 0 0 0 0 0 0 0 
0 0 0 0 0 0 0 0 0 
0 0 0 0 0 0 0 0 0 
0 0 0 0 0 0 0 0 0 
0 0 0 0 0 0 0 0 0 
0 0 0 0 0 0 0 0 0 
0 0 0 0 0 0 0 0 0 
0 0 0 0 0 0 0 0 0 
0 0 0 0 0 0 0 0 0 
0 0 0 0 0 0 0 0 0 
0 0 0 0 0 0 0 0 0 
0 0 0 0 0 0 0 0 0 
0 0 0 0 0 0 0 0 0 
0 0 0 0 0 0 0 0 0 
0 0 0 0 0 0 0 0 0 
0 0 0 0 0 0 0 0 0 
0 0 0 0 0 0 0 0 0 
0 0 0 0 0 0 0 0 0 
0 0 0 0 0 0 0 0 0 
0 0 0 0 0 0 0 0 0 
0 0 0 0 0 0 0 0 0 
0 0 0 0 0 0 0 0 0 
0 0 0 0 0 0 0 0 0 
0 0 0 0 0 0 0 0 0 
0 0 0 0 0 0 0 0 0 
0 0 0 0 0 0 0 0 0 
0 0 0 0 0 0 0 0 0 
0 0 0 0 0 0 0 0 0 
0 0 0 0 0 0 0 0 0 
0 0 0 0 0 0 0 0 0 
0 0 0 0 0 0 0 0 0 
0 0 0 0 0 0 0 0 0 
0 0 0 0 0 0 0 0 0 
0 0 0 0 0 0 0 0 0 
0 0 0 0 0 0 0 0 0 
0 0 0 0 0 0 0 0 0 
0 0 0 0 0 0 0 0 0 
0 0 0 0 0 0 0 0 0 
0 0 0 0 0 0 0 0 0 
0 0 0 0 0 0 0 0 0 
0 0 0 0 0 0 0 0 0 
0 0 0 0 0 0 0 0 0 
0 0 0 0 0 0 0 0 0 
0 0 0 0 0 0 0 0 0 
0 0 0 0 0 0 0 0 0 
0 0 0 0 0 0 0 0 0 
0 0 0 0 0 0 0 0 0 
0 0 0 0 0 0 0 0 0 
0 0 0 0 0 0 0 0 0 
0 0 0 0 0 0 0 0 0 
0 0 0 0 0 0 0 0 0 
0 0 0 0 0 0 0 0 0 
0 0 0 0 0 0 0 0 0 
0 0 0 0 0 0 0 0 0 
0 0 0 0 0 0 0 0 0 
0 0 0 0 0 0 0 0 0 
0 0 0 0 0 0 0 0 0 
0 0 0 0 0 0 0 0 0 
0 0 0 0 0 0 0 0 0 
0 0 0 0 0 0 0 0 0 
0 0 0 0 0 0 0 0 0 
0 0 0 0 0 0 0 0 0 
0 0 0 0 0 0 0 0 0 
0 0 0 0 0 0 0 0 0 
0 0 0 0 0 0 0 0 0 
0 0 0 0 0 0 0 0 0 
0 0 0 0 0 0 0 0 0 
0 0 0 0 0 0 0 0 0 
0 0 0 0 0 0 0 0 0 
0 0 0 0 0 0 0 0 0 
0 0 0 0 0 0 0 0 0 
0 0 0 0 0 0 0 0 0 
0 0 0 0 0 0 0 0 0 
0 0 0 0 0 0 0 0 0 
0 0 0 0 0 0 0 0 0 
0 0 0 0 0 0 0 0 0 
0 0 0 0 0 0 0 0 0 
0 0 0 0 0 0 0 0 0 
0 0 0 0 0 0 0 0 0 
0 0 0 0 0 0 0 0 0 
0 0 0 0 0 0 0 0 0 
0 0 0 0 0 0 0 0 0 
0 0 0 0 0 0 0 0 0 
0 0 0 0 0 0 0 0 0 
0 0 0 0 0 0 0 0 0 
0 0 0 0 0 0 0 0 0 
0 0 0 0 0 0 0 0 0 
0 0 0 0 0 0 0 0 0 
0 0 0 0 0 0 0 0 0 
0 0 0 0 0 0 0 0 0 
0 0 0 0 0 0 0 0 0 
0 0 0 0 0 0 0 0 0 
0 0 0 0 0 0 0 0 0 
0 0 0 0 0 0 0 0 0 
0 0 0 0 0 0 0 0 0 
0 0 0 0 0 0 0 0 0 
0 0 0 0 0 0 0 0 0 
0 0 0 0 0 0 0 0 0 
0 0 0 0 0 0 0 0 0 
0 0 0 0 0 0 0 0 0 
0 0 0 0 0 0 0 0 0 
0 0 0 0 0 0 0 0 0 
0 0 0 0 0 0 0 0 0 
0 0 0 0 0 0 0 0 0 
0 0 0 0 0 0 0 0 0 
0 0 0 0 0 0 0 0 0 
0 0 0 0 0 0 0 0 0 
0 0 0 0 0 0 0 0 0 
0 0 0 0 0 0 0 0 0 
0 0 0 0 0 0 0 0 0 
0 0 0 0 0 0 0 0 0 
0 0 0 0 0 0 0 0 0 
0 0 0 0 0 0 0 0 0 
0 0 0 0 0 0 0 0 0 
0 0 0 0 0 0 0 0 0 
0 0 0 0 0 0 0 0 0 
0 0 0 0 0 0 0 0 0 
0 0 0 0 0 0 0 0 0 
0 0 0 0 0 0 0 0 0 
0 0 0 0 0 0 0 0 0 
0 0 0 0 0 0 0 0 0 
0 0 0 0 0 0 0 0 0 
0 0 0 0 0 0 0 0 0 
0 0 0 0 0 0 0 0 0 
0 0 0 0 0 0 0 0 0 
0 0 0 0 0 0 0 0 0 
0 0 0 0 0 0 0 0 0 
0 0 0 0 0 0 0 0 0 
0 0 0 0 0 0 0 0 0 
0 0 0 0 0 0 0 0 0 
0 0 0 0 0 0 0 0 0 
0 0 0 0 0 0 0 0 0 
0 0 0 0 0 0 0 0 0 
0 0 0 0 0 0 0 0 0 
0 0 0 0 0 0 0 0 0 
0 0 0 0 0 0 0 0 0 
0 0 0 0 0 0 0 0 0 
0 0 0 0 0 0 0 0 0 
0 0 0 0 0 0 0 0 0 
0 0 0 0 0 0 0 0 0 
0 0 0 0 0 0 0 0 0 
0 0 0 0 0 0 0 0 0 
0 0 0 0 0 0 0 0 0 
0 0 0 0 0 0 0 0 0 
0 0 0 0 0 0 0 0 0 
0 0 0 0 0 0 0 0 0 
0 0 0 0 0 0 0 0 0 
0 0 0 0 0 0 0 0 0 
0 0 0 0 0 0 0 0 0 
0 0 0 0 0 0 0 0 0 
0 0 0 0 0 0 0 0 0 
0 0 0 0 0 0 0 0 0 
0 0 0 0 0 0 0 0 0 
0 0 0 0 0 0 0 0 0 
0 0 0 0 0 0 0 0 0 
0 0 0 0 0 0 0 0 0 
0 0 0 0 0 0 0 0 0 
0 0 0 0 0 0 0 0 0 
0 0 0 0 0 0 0 0 0 
0 0 0 0 0 0 0 0 0 
0 0 0 0 0 0 0 0 0 
0 0 0 0 0 0 0 0 0 
0 0 0 0 0 0 0 0 0 
0 0 0 0 0 0 0 0 0 
0 0 0 0 0 0 0 0 0 
0 0 0 0 0 0 0 0 0 
0 0 0 0 0 0 0 0 0 
0 0 0 0 0 0 0 0 0 
0 0 0 0 0 0 0 0 0 
0 0 0 0 0 0 0 0 0 
0 0 0 0 0 0 0 0 0 

v 3 1488 double
-0.00631138 0.00266124 4.22316e-12 -0.0154243 0.00234751 4.23898e-11 -0.0119639 0.00244921 -3.08225e-06 
-0.0397278 0.0867411 0.0218129 0.0447059 -0.034992 1.1543e-09 0.0124201 0.0177682 -3.02957e-11 
-0.0199209 0.00760853 3.18392e-05 -0.00906054 0.00135331 -5.83469e-06 0.0184916 -0.0852599 0.0242117 
-0.0101657 -0.0289705 -3.74665e-05 0.00436702 0.00543682 6.60376e-06 -0.00655869 0.0140405 -4.80308e-06 
0.0556502 -0.0560118 -0.0122785 0.0108642 -0.00341765 -4.44627e-13 -0.00206225 -0.0366005 -3.92116e-08 
-0.0175235 -0.00545047 -4.63599e-06 -0.110732 -0.0416722 -0.0164753 -0.0241187 -0.0221968 -0.00205906 
-0.00415432 -0.053178 -3.19271e-05 -0.0441904 0.076408 -0.0465194 -0.107152 -0.0983425 0.0160746 
0.0109101 0.00271185 -0.018484 0.0292802 -0.0526139 0.0019601 -0.119329 -0.0706774 -0.16038 