# vtk DataFile Version 4.0
Generated by LIGGGHTS
ASCII
DATASET POLYDATA
POINTS 1488 float
-0.128875 -0.263907 -0.99501 -0.13702 -0.255381 -0.99501 -0.124511 -0.24855 -0.99501 
-0.149463 -0.247281 -0.990032 -0.162413 -0.240398 -0.99501 -0.119582 -0.268544 -0.99501 
-0.0605562 -0.254143 -0.995006 -0.067771 -0.27153 -0.99501 -0.078589 -0.270889 -0.99501 
-0.0903403 -0.273642 -0.99501 -0.0695255 -0.283305 -0.99501 -0.104387 -0.270032 -0.990032 
-0.070759 -0.248268 -0.99501 -0.0832093 -0.28216 -0.99501 -0.109062 -0.25261 -0.99501 
-0.0986121 -0.254969 -0.99501 -0.0853973 -0.248716 -0.99501 -0.0905922 -0.262976 -0.99501 
-0.0958084 -0.240875 -0.99501 -0.058533 -0.244351 -0.995013 -0.0434611 -0.251062 -0.995014 
-0.0573748 -0.264518 -0.99501 -0.0416081 -0.282457 -0.995016 -0.0485808 -0.242343 -0.99501 
-0.0469199 -0.264943 -0.99501 -0.0385395 -0.27285 -0.99501 -0.0273863 -0.293141 -0.99501 
-0.055795 -0.279162 -0.990032 -0.0167882 -0.25852 -0.99501 -0.0475966 -0.29087 -0.99501 
-0.0174045 -0.29385 -0.99501 -0.0311997 -0.282224 -0.99501 -0.0298624 -0.240354 -0.99501 
-0.00684226 -0.294843 -0.99501 -0.00614108 -0.284808 -0.99501 -0.0282699 -0.271588 -0.99501 
-0.0309155 -0.257579 -0.990029 -0.0373575 -0.292301 -0.99501 -0.0125437 -0.277098 -0.99501 
-0.0209952 -0.282717 -0.99501 -0.00646417 -0.267339 -0.99501 -0.0182632 -0.268651 -0.99501 
0.00258618 -0.247768 -0.99501 0.00123612 -0.260572 -0.99501 0.00127253 -0.27463 -0.99501 
0.00433889 -0.294969 -0.995009 0.0129994 -0.242261 -0.99501 0.019035 -0.293188 -0.995 
0.0139064 -0.274053 -0.995 0.0253349 -0.280088 -0.99501 0.00462011 -0.284956 -0.99501 
0.0169343 -0.260115 -0.990032 0.0370573 -0.288992 -0.99501 0.040687 -0.246283 -0.99501 
0.0255788 -0.2488 -0.99501 0.0550084 -0.283567 -0.990032 0.0380985 -0.26871 -0.99501 
0.0320722 -0.258769 -0.99501 0.0148369 -0.283982 -0.994222 0.062374 -0.240136 -0.99501 
0.061631 -0.260339 -0.990032 0.0763265 -0.283962 -0.99501 0.0967405 -0.276203 -0.995012 
0.0974472 -0.264711 -0.99501 0.111124 -0.273193 -0.995014 0.106436 -0.257496 -0.99501 
0.0803441 -0.263672 -0.99501 0.072545 -0.270786 -0.99501 0.0892681 -0.25732 -0.99501 
0.076815 -0.253325 -0.99501 0.0810229 -0.244041 -0.995008 0.103143 -0.270843 -0.98949 
0.115249 -0.24885 -0.995007 0.120273 -0.2687 -0.99501 0.126949 -0.260638 -0.99501 
0.137885 -0.260341 -0.99501 0.149877 -0.252022 -0.99501 0.141471 -0.242527 -0.99501 
0.13259 -0.25071 -0.99501 0.16283 -0.245921 -0.99501 -0.21312 -0.197603 -0.994917 
-0.184728 -0.226859 -0.99501 -0.202203 -0.20216 -0.994527 -0.18932 -0.20304 -0.99501 
-0.18074 -0.192369 -0.993998 -0.204378 -0.212212 -0.994993 -0.228499 -0.185467 -0.995001 
-0.218447 -0.188571 -0.995012 -0.191261 -0.186145 -0.994916 -0.200372 -0.192279 -0.994373 
-0.189849 -0.181246 -0.972478 -0.181539 -0.182118 -0.994449 -0.174442 -0.184906 -0.986034 
-0.177424 -0.218012 -0.99501 -0.158165 -0.206515 -0.99501 -0.124166 -0.220157 -0.990032 
-0.175406 -0.234245 -0.99501 -0.15679 -0.226506 -0.990032 -0.172069 -0.197416 -0.99501 
-0.133508 -0.205188 -0.99501 -0.144857 -0.208602 -0.99501 -0.121639 -0.204348 -0.99501 
-0.150117 -0.19295 -0.99501 -0.143317 -0.231799 -0.99501 -0.12753 -0.185147 -0.99501 
-0.161371 -0.196381 -0.995009 -0.169061 -0.18769 -0.99499 -0.14393 -0.205032 -0.97829 
-0.175542 -0.202138 -0.960473 -0.159307 -0.190797 -0.968294 -0.0776689 -0.23947 -0.99501 
-0.115242 -0.239282 -0.99501 -0.0671572 -0.230759 -0.99501 -0.109966 -0.220939 -0.99501 
-0.0856874 -0.229175 -0.99501 -0.116736 -0.189141 -0.99501 -0.0847187 -0.216711 -0.99501 
-0.0757907 -0.225679 -0.99501 -0.0629572 -0.202054 -0.99501 -0.0987649 -0.192871 -0.99501 
-0.0875508 -0.18892 -0.99501 -0.0766954 -0.182153 -0.995015 -0.104302 -0.20164 -0.99501 
-0.0847416 -0.202575 -0.99501 -0.0945332 -0.21091 -0.99501 -0.0626696 -0.185572 -0.99501 
-0.0120136 -0.238906 -0.99501 -0.00777886 -0.221743 -0.995009 -0.0230649 -0.232032 -0.99501 
-0.0560193 -0.232942 -0.99501 -0.043154 -0.232688 -0.99501 -0.0491936 -0.189331 -0.99501 
-0.0564821 -0.22179 -0.99501 -0.0520244 -0.199897 -0.99501 -0.0558591 -0.211795 -0.99501 
-0.0274073 -0.220915 -0.99501 -0.0458604 -0.218302 -0.99501 -0.0173562 -0.214665 -0.99501 
-0.0372056 -0.224445 -0.99501 -0.0361242 -0.213315 -0.99501 -0.0453238 -0.207495 -0.99501 
-0.0348317 -0.198164 -0.99501 -0.0262136 -0.190752 -0.99501 -0.0371745 -0.186534 -0.99501 
-0.01002 -0.198505 -0.99501 -0.00713909 -0.188442 -0.99501 -0.0074648 -0.210903 -0.99501 
-0.0216992 -0.200981 -0.99501 -0.0159995 -0.183006 -0.99501 0.03705 -0.235395 -0.99501 
0.0340244 -0.199893 -0.995008 0.0176703 -0.231174 -0.99501 0.0208347 -0.207559 -0.994846 
0.0224102 -0.219697 -0.995007 0.030384 -0.2118 -0.99501 0.0016936 -0.2019 -0.99501 
0.0516691 -0.189767 -0.938173 0.0296854 -0.182547 -0.99501 0.0453513 -0.195496 -0.99501 
0.0248799 -0.238377 -0.99501 0.0418533 -0.21516 -0.99501 0.052648 -0.203386 -0.99501 
0.0558807 -0.193365 -0.99501 0.0448898 -0.227788 -0.99501 0.0388051 -0.187509 -0.99501 
0.0509745 -0.219757 -0.99501 0.0344738 -0.222265 -0.99501 0.059621 -0.226998 -0.99501 
0.0700954 -0.239403 -0.969641 0.0606054 -0.212393 -0.99501 0.117431 -0.237858 -0.99501 
0.0717499 -0.185265 -0.99501 0.0672749 -0.200064 -0.99501 0.0831519 -0.232181 -0.995017 
0.0749488 -0.212972 -0.99501 0.108827 -0.213335 -0.99501 0.0886322 -0.221711 -0.99501 
0.0961896 -0.238682 -0.990113 0.0918129 -0.187452 -0.99501 0.0824464 -0.183502 -0.99501 
0.0850243 -0.211982 -0.995011 0.101774 -0.202157 -0.994988 0.0967295 -0.21097 -0.994997 
0.0751864 -0.223472 -0.99501 0.0795353 -0.202615 -0.99501 0.0912072 -0.199134 -0.99501 
0.103566 -0.182454 -0.995014 0.100941 -0.192182 -0.994997 0.112553 -0.201497 -0.99501 
0.10502 -0.22667 -0.995039 0.115361 -0.226811 -0.995009 0.112184 -0.18899 -0.995007 
0.118966 -0.214443 -0.99501 0.104658 -0.218089 -0.976836 0.15303 -0.239684 -0.99501 
0.154103 -0.229663 -0.99501 0.131207 -0.238272 -0.99501 0.144425 -0.232468 -0.99501 
0.155734 -0.219479 -0.99501 0.134823 -0.200981 -0.99501 0.16549 -0.222817 -0.99501 
0.134339 -0.222415 -0.990032 0.125995 -0.207337 -0.99501 0.143539 -0.183279 -0.99501 
0.154483 -0.20832 -0.995011 0.165006 -0.19061 -0.99501 0.170729 -0.181994 -0.99501 
0.174509 -0.200667 -0.995011 0.145268 -0.199571 -0.99501 0.154548 -0.192712 -0.99501 
0.174283 -0.214436 -0.995019 0.163669 -0.200536 -0.99501 0.122061 -0.190602 -0.99501 
0.135109 -0.190038 -0.995011 0.175827 -0.224319 -0.99501 0.172907 -0.238808 -0.99501 
0.163954 -0.234193 -0.99501 0.164287 -0.211726 -0.984192 0.142162 -0.209743 -0.99501 
0.132891 -0.180275 -0.995011 0.180996 -0.193045 -0.995009 0.190336 -0.20252 -0.99501 
0.194525 -0.221037 -0.99501 0.199216 -0.211281 -0.99501 0.184684 -0.218325 -0.99501 
0.210565 -0.206317 -0.99501 0.218828 -0.197362 -0.99501 0.191082 -0.189017 -0.99501 
0.181757 -0.207714 -0.99501 0.200243 -0.201131 -0.99501 0.201432 -0.188268 -0.99501 
0.208834 -0.196007 -0.99501 0.215339 -0.18738 -0.99501 0.225473 -0.188557 -0.99501 
0.181476 -0.232577 -0.99501 -0.259792 -0.139461 -0.995063 -0.241086 -0.167426 -0.995015 
-0.254902 -0.148318 -0.995007 -0.246531 -0.159111 -0.995005 -0.264571 -0.12805 -0.99501 
-0.253818 -0.135131 -0.982082 -0.245321 -0.145284 -0.995024 -0.185956 -0.15851 -0.995009 
-0.191536 -0.171748 -0.995009 -0.204553 -0.136287 -0.99501 -0.221659 -0.154152 -0.994948 
-0.221195 -0.178631 -0.99464 -0.238753 -0.137443 -0.994979 -0.197412 -0.15068 -0.995006 
-0.230126 -0.13192 -0.993717 -0.181664 -0.167954 -0.994976 -0.237837 -0.152619 -0.995008 
-0.231681 -0.174285 -0.99501 -0.220173 -0.130809 -0.994532 -0.237622 -0.125117 -0.993666 
-0.206548 -0.123618 -0.995019 -0.227795 -0.122179 -0.993373 -0.144837 -0.177274 -0.99501 
-0.163867 -0.166632 -0.979655 -0.144803 -0.154489 -0.970178 -0.172295 -0.178121 -0.994978 
-0.126344 -0.174575 -0.99501 -0.158253 -0.124772 -0.995015 -0.158381 -0.176961 -0.995011 
-0.151534 -0.160078 -0.995014 -0.131745 -0.165599 -0.99501 -0.143676 -0.144216 -0.994507 
-0.139325 -0.134113 -0.99501 -0.162931 -0.162164 -0.989683 -0.123026 -0.132068 -0.99501 
-0.141468 -0.158199 -0.994988 -0.158823 -0.138902 -0.99499 -0.129432 -0.142382 -0.99501 
-0.167123 -0.132037 -0.994975 -0.13278 -0.124926 -0.99501 -0.149512 -0.15179 -0.989729 
-0.0760697 -0.17149 -0.995011 -0.112129 -0.162113 -0.99501 -0.102557 -0.178791 -0.990032 
-0.116946 -0.12398 -0.99501 -0.116024 -0.173744 -0.99501 -0.106286 -0.148275 -0.99501 
-0.0622275 -0.159517 -0.99501 -0.0979558 -0.165082 -0.99501 -0.0974606 -0.154105 -0.99501 
-0.10845 -0.129731 -0.99501 -0.0762728 -0.142402 -0.990032 -0.0875416 -0.133586 -0.99501 
-0.067708 -0.13051 -0.99501 -0.0865148 -0.152969 -0.99501 -0.0771106 -0.124691 -0.99501 
-0.088691 -0.174756 -0.99501 -0.0631735 -0.148682 -0.99501 -0.0977409 -0.132116 -0.99501 
-0.0516137 -0.173683 -0.990032 -0.0507633 -0.157214 -0.99501 -0.0372412 -0.175153 -0.99501 
-0.032359 -0.159397 -0.99501 -0.0191367 -0.164532 -0.99501 -0.0515005 -0.145661 -0.99501 
-0.0542593 -0.132903 -0.99501 -0.0565795 -0.121433 -0.99501 -0.0307085 -0.149419 -0.995008 
-0.0115333 -0.141744 -0.99501 -0.011251 -0.173542 -0.995009 -0.00288109 -0.146769 -0.99501 
-0.0258205 -0.178366 -0.99501 -0.0438514 -0.131321 -0.995009 -0.0206936 -0.150987 -0.995013 
-0.0358247 -0.140419 -0.99501 -0.0104887 -0.156244 -0.99501 -0.00057172 -0.12575 -0.99501 
-0.0102651 -0.131043 -0.99501 -0.00541855 -0.165106 -0.995011 -0.0312243 -0.13003 -0.995003 
-0.000168463 -0.137024 -0.99501 -0.0232736 -0.140143 -0.99501 -0.0443147 -0.121296 -0.994861 
-0.0203932 -0.128723 -0.995009 0.0458419 -0.177959 -0.99501 2.96059e-06 -0.156348 -0.99501 
0.0228807 -0.174476 -0.995012 0.00404574 -0.179607 -0.990032 0.0144155 -0.168629 -0.99501 
0.00974573 -0.14954 -0.99501 0.0097786 -0.139373 -0.99501 0.0237017 -0.164393 -0.995008 
0.020251 -0.153931 -0.99501 0.0232865 -0.144109 -0.99501 0.0343581 -0.17081 -0.995012 
0.0348697 -0.144689 -0.99501 0.0094441 -0.159769 -0.99501 0.00998897 -0.12839 -0.99501 
[...]
POINT_DATA 1488
FIELD FieldData 7
id 1 1488 int
1363 202 51 1136 1056 135 918 909 572 
287 112 589 649 946 78 849 162 1100 
625 294 843 1345 1355 196 536 562 122 
17 533 546 37 706 759 1124 315 1264 
588 1044 723 698 1333 797 1161 687 664 
402 683 408 183 1258 1373 583 1061 1081 
677 1139 1269 1187 1415 801 1135 867 328 
364 1489 1374 740 653 561 35 473 145 
1497 680 472 194 266 977 1253 1239 1172 
1337 1048 933 1196 790 944 1473 888 1194 
1036 1453 246 948 507 577 900 1144 366 
1470 486 1003 936 826 666 416 1440 989 
1298 1289 325 322 1018 97 1234 1490 830 
770 949 1211 818 505 1272 1437 973 1118 
77 634 877 987 1256 291 265 1301 1021 
543 906 170 429 1452 788 350 454 886 
943 725 851 214 1113 212 310 1491 1308 
1267 632 1128 528 1229 1409 921 985 811 
1086 1027 186 31 1012 158 1346 719 930 
1057 362 371 379 864 477 25 624 373 
532 172 329 127 1068 1412 34 540 911 
1244 525 942 545 1143 548 1232 1477 838 
979 1189 1359 5 646 462 636 1200 476 
1318 455 915 1454 1300 179 869 297 1052 
1414 582 1121 216 1448 1045 874 1462 926 
898 334 286 1469 309 1483 1498 726 1370 
1468 735 426 1314 452 1123 579 929 1163 
1387 704 530 1306 972 1097 568 842 556 
718 737 1236 101 1428 144 376 467 702 
952 1213 484 1467 333 458 1375 338 438 
453 1159 1164 732 1443 1242 707 506 585 
1481 777 882 925 615 348 519 1145 685 
990 681 1360 802 1022 389 574 39 440 
1367 850 810 206 781 358 395 1341 674 
1216 645 175 809 1365 620 711 128 631 
657 1492 881 1110 760 490 263 26 1401 
1221 647 691 1202 1166 292 1274 313 622 
1158 967 401 1011 655 1287 1090 991 67 
306 1073 1150 1175 827 277 1023 123 210 
786 1257 131 840 1215 709 857 1188 1321 
551 1466 629 1347 163 669 261 409 575 
518 1273 337 1376 1331 48 1075 1179 141 
1130 225 758 703 495 934 696 1260 73 
815 951 710 151 1366 230 130 118 94 
1051 76 65 957 699 60 993 730 832 
817 1246 305 414 419 195 1102 1394 763 
1191 1030 1020 892 1479 764 1241 746 613 
605 1060 1093 1245 1388 917 544 1286 159 
1458 55 446 443 441 93 841 693 964 
84 1439 1410 1108 243 554 178 800 678 
866 1450 1395 70 33 527 749 119 1105 
1034 950 470 1168 1223 1174 908 116 1340 
792 1131 1111 226 72 499 267 1091 10 
9 375 983 1182 1074 1307 335 708 108 
1285 165 602 1411 331 1002 1325 137 448 
1214 1261 512 1210 330 1114 521 1434 1446 
357 321 539 779 157 821 396 451 804 
224 3 1447 662 1249 250 765 423 47 
169 1116 1148 238 1165 1416 140 30 28 
1252 219 509 524 504 819 865 1371 1400 
276 1071 434 1038 485 873 461 515 1151 
1353 399 856 1361 1033 378 1369 675 1271 
672 858 182 8 211 471 489 6 463 
1149 198 1119 74 1311 542 514 248 354 
1380 120 411 982 1425 252 975 1222 68 
432 1324 372 360 1309 1431 1417 1423 104 
45 16 594 995 870 139 1160 40 304 
931 534 566 1040 992 1224 403 912 181 
720 394 1493 233 1185 713 259 970 285 
1104 256 347 1419 397 1418 4 831 1208 
919 311 1461 523 750 855 1032 475 428 
234 965 146 500 803 508 1014 80 939 
1441 661 814 1432 580 976 1039 418 902 
302 1352 547 825 1460 928 1304 795 1207 
229 1070 89 600 1142 1077 1310 343 1323 
1354 370 115 897 1016 1204 424 1055 721 
387 272 1328 1420 1344 502 599 513 616 
340 731 1343 392 1047 190 1226 323 257 
1157 1312 1079 1082 1262 956 1183 610 56 
1008 193 345 368 628 1288 1001 755 745 
1430 1457 184 155 999 317 626 742 442 
907 752 1480 12 1141 695 1356 1297 32 
1080 497 43 836 100 623 1154 1006 744 
887 217 862 213 405 1035 522 103 1065 
769 883 871 1120 1377 1485 95 1404 665 
903 274 642 249 83 290 963 1389 606 
966 644 242 66 90 129 117 558 650 
187 312 1248 20 1255 673 480 134 793 
571 618 847 1251 273 1212 940 889 1007 
772 598 679 336 1106 349 517 59 1195 
1299 913 1072 878 932 1326 251 609 823 
1146 282 1228 1398 1184 923 494 905 1444 
592 1427 820 612 1433 614 153 643 1296 
422 945 652 531 264 958 564 374 516 
1342 717 587 71 885 468 369 1076 222 
147 899 834 824 1392 767 447 491 608 
483 168 1405 812 596 670 712 729 24 
1137 538 1465 535 314 959 1429 1499 69 
853 1390 1403 1126 789 637 1230 974 339 
1198 734 299 355 64 36 254 1290 924 
1186 245 464 938 1117 384 439 197 91 
1067 627 1162 81 716 138 1122 783 1476 
776 1129 200 82 293 1177 1278 191 228 
1442 520 1013 171 935 676 433 410 361 
1456 390 621 1276 1028 748 1464 351 1283 
1275 641 1435 353 875 449 771 1156 218 
651 1096 498 962 1436 247 421 177 1378 
53 280 1317 303 635 684 1227 806 7 
98 1024 1169 244 492 188 109 1475 563 
978 1472 126 1263 766 1279 260 501 87 
1303 1099 1176 241 125 557 1225 768 19 
757 363 1206 1426 1095 722 1085 1384 1335 
1083 236 955 270 663 1235 377 1292 391 
231 986 682 481 15 1338 611 1173 1247 
1474 654 893 415 469 1284 837 398 953 
601 1266 192 1112 968 567 1488 1327 916 
739 75 648 1243 633 603 511 1291 762 
607 947 1219 1218 586 828 185 1332 1305 
630 1487 584 1478 346 327 342 773 595 
1025 1066 1203 1089 1494 382 550 835 988 
941 604 444 239 482 581 984 1170 1484 
1000 278 1152 1240 552 1486 271 914 79 
258 658 541 38 1413 1319 667 787 113 
1322 1134 1265 488 1295 92 386 927 1092 
307 324 430 1220 784 861 281 782 1270 
980 44 1 901 1050 714 890 1171 619 
308 167 1058 686 1459 845 176 393 288 
174 63 1495 700 107 1059 833 365 1153 
969 1496 807 227 1393 88 640 1046 1329 
937 148 1009 275 894 1054 656 859 316 
1402 279 590 565 221 215 1364 1334 1069 
237 1281 617 829 1197 296 701 1445 671 
319 1087 289 1043 689 58 813 11 150 
1391 1127 381 1181 262 1351 180 255 41 
29 724 593 496 223 796 1372 549 1180 
1109 1088 114 1138 1357 1382 85 1449 1041 
896 99 417 1062 798 413 578 808 1254 
320 1349 1103 1320 1455 816 1397 1209 529 
805 466 961 106 111 694 1019 846 996 
121 388 1424 160 164 1178 478 778 1064 
1015 1277 852 1358 400 284 14 1336 295 
738 406 891 1315 1407 920 161 300 367 
998 775 209 728 1049 1231 1192 298 741 
156 1217 591 569 407 1167 1205 751 785 
1302 136 1201 1190 1280 269 352 445 204 
510 981 240 1313 1084 774 18 1294 437 
124 435 1471 690 57 1408 1316 503 884 
895 96 383 207 1107 235 22 880 208 
456 143 201 412 1017 318 1031 1438 1259 
133 465 791 1293 21 960 799 848 142 
780 1199 2 994 537 638 1029 879 597 
1463 1010 1094 1381 50 733 1078 526 1037 
743 457 727 1385 436 1238 431 326 268 
555 1383 1115 736 1233 359 922 854 1193 
102 42 705 753 570 1330 220 493 173 
839 356 1125 1451 203 232 844 1386 754 
971 747 1350 1053 692 46 715 1155 380 
1098 659 1004 1348 450 1422 154 660 868 
149 404 105 1005 420 86 479 253 1063 
460 1482 23 52 1268 425 576 49 1406 
1339 61 553 863 54 474 13 27 199 
756 668 910 1399 166 1368 487 794 283 
1026 876 1133 332 904 1362 822 62 697 
872 559 761 997 639 1101 344 560 1421 
860 152 1282 341 1042 1396 385 573 1132 
1147 1140 1379 
type 1 1488 int
1 1 1 1 1 1 1 1 1 
1 1 1 1 1 1 1 1 1 
1 1 1 1 1 1 1 1 1 
1 1 1 1 1 1 1 1 1 
1 1 1 1 1 1 1 1 1 
1 1 1 1 1 1 1 1 1 
1 1 1 1 1 1 1 1 1 
1 1 1 1 1 1 1 1 1 
1 1 1 1 1 1 1 1 1 
1 1 1 1 1 1 1 1 1 
1 1 1 1 1 1 1 1 1 
1 1 1 1 1 1 1 1 1 
1 1 1 1 1 1 1 1 1 
1 1 1 1 1 1 1 1 1 
1 1 1 1 1 1 1 1 1 
1 1 1 1 1 1 1 1 1 
1 1 1 1 1 1 1 1 1 
1 1 1 1 1 1 1 1 1 
1 1 1 1 1 1 1 1 1 
1 1 1 1 1 1 1 1 1 
1 1 1 1 1 1 1 1 1 
1 1 1 1 1 1 1 1 1 
1 1 1 1 1 1 1 1 1 
1 1 1 1 1 1 1 1 1 
1 1 1 1 1 1 1 1 1 
1 1 1 1 1 1 1 1 1 
1 1 1 1 1 1 1 1 1 
1 1 1 1 1 1 1 1 1 
1 1 1 1 1 1 1 1 1 
1 1 1 1 1 1 1 1 1 
1 1 1 1 1 1 1 1 1 
1 1 1 1 1 1 1 1 1 
1 1 1 1 1 1 1 1 1 
1 1 1 1 1 1 1 1 1 
1 1 1 1 1 1 1 1 1 
1 1 1 1 1 1 1 1 1 
1 1 1 1 1 1 1 1 1 
1 1 1 1 1 1 1 1 1 
1 1 1 1 1 1 1 1 1 
1 1 1 1 1 1 1 1 1 
1 1 1 1 1 1 1 1 1 
1 1 1 1 1 1 1 1 1 
1 1 1 1 1 1 1 1 1 
1 1 1 1 1 1 1 1 1 
1 1 1 1 1 1 1 1 1 
1 1 1 1 1 1 1 1 1 
1 1 1 1 1 1 1 1 1 
1 1 1 1 1 1 1 1 1 
1 1 1 1 1 1 1 1 1 
1 1 1 1 1 1 1 1 1 
1 1 1 1 1 1 1 1 1 
1 1 1 1 1 1 1 1 1 
1 1 1 1 1 1 1 1 1 
1 1 1 1 1 1 1 1 1 
1 1 1 1 1 1 1 1 1 
1 1 1 1 1 1 1 1 1 
1 1 1 1 1 1 1 1 1 
1 1 1 1 1 1 1 1 1 
1 1 1 1 1 1 1 1 1 
1 1 1 1 1 1 1 1 1 
1 1 1 1 1 1 1 1 1 
1 1 1 1 1 1 1 1 1 
1 1 1 1 1 1 1 1 1 
1 1 1 1 1 1 1 1 1 
1 1 1 1 1 1 1 1 1 
1 1 1 1 1 1 1 1 1 
1 1 1 1 1 1 1 1 1 
1 1 1 1 1 1 1 1 1 
1 1 1 1 1 1 1 1 1 
1 1 1 1 1 1 1 1 1 
1 1 1 1 1 1 1 1 1 
1 1 1 1 1 1 1 1 1 
1 1 1 1 1 1 1 1 1 
1 1 1 1 1 1 1 1 1 
1 1 1 1 1 1 1 1 1 
1 1 1 1 1 1 1 1 1 
1 1 1 1 1 1 1 1 1 
1 1 1 1 1 1 1 1 1 
1 1 1 1 1 1 1 1 1 
1 1 1 1 1 1 1 1 1 
1 1 1 1 1 1 1 1 1 
1 1 1 1 1 1 1 1 1 
1 1 1 1 1 1 1 1 1 
1 1 1 1 1 1 1 1 1 
1 1 1 1 1 1 1 1 1 
1 1 1 1 1 1 1 1 1 
1 1 1 1 1 1 1 1 1 
1 1 1 1 1 1 1 1 1 
1 1 1 1 1 1 1 1 1 
1 1 1 1 1 1 1 1 1 
1 1 1 1 1 1 1 1 1 
1 1 1 1 1 1 1 1 1 
1 1 1 1 1 1 1 1 1 
1 1 1 1 1 1 1 1 1 
1 1 1 1 1 1 1 1 1 
1 1 1 1 1 1 1 1 1 
1 1 1 1 1 1 1 1 1 
1 1 1 1 1 1 1 1 1 
1 1 1 1 1 1 1 1 1 
1 1 1 1 1 1 1 1 1 
1 1 1 1 1 1 1 1 1 
1 1 1 1 1 1 1 1 1 
1 1 1 1 1 1 1 1 1 
1 1 1 1 1 1 1 1 1 
1 1 1 1 1 1 1 1 1 
1 1 1 1 1 1 1 1 1 
1 1 1 1 1 1 1 1 1 
1 1 1 1 1 1 1 1 1 
1 1 1 1 1 1 1 1 1 
1 1 1 1 1 1 1 1 1 
1 1 1 1 1 1 1 1 1 
1 1 1 1 1 1 1 1 1 
1 1 1 1 1 1 1 1 1 
1 1 1 1 1 1 1 1 1 
1 1 1 1 1 1 1 1 1 
1 1 1 1 1 1 1 1 1 
1 1 1 1 1 1 1 1 1 
1 1 1 1 1 1 1 1 1 
1 1 1 1 1 1 1 1 1 
1 1 1 1 1 1 1 1 1 
1 1 1 1 1 1 1 1 1 
1 1 1 1 1 1 1 1 1 
1 1 1 1 1 1 1 1 1 
1 1 1 1 1 1 1 1 1 
1 1 1 1 1 1 1 1 1 
1 1 1 1 1 1 1 1 1 
1 1 1 1 1 1 1 1 1 
1 1 1 1 1 1 1 1 1 
1 1 1 1 1 1 1 1 1 
1 1 1 1 1 1 1 1 1 
1 1 1 1 1 1 1 1 1 
1 1 1 1 1 1 1 1 1 
1 1 1 1 1 1 1 1 1 
1 1 1 1 1 1 1 1 1 
1 1 1 1 1 1 1 1 1 
1 1 1 1 1 1 1 1 1 
1 1 1 1 1 1 1 1 1 
1 1 1 1 1 1 1 1 1 
1 1 1 1 1 1 1 1 1 
1 1 1 1 1 1 1 1 1 
1 1 1 1 1 1 1 1 1 
1 1 1 1 1 1 1 1 1 
1 1 1 1 1 1 1 1 1 
1 1 1 1 1 1 1 1 1 
1 1 1 1 1 1 1 1 1 
1 1 1 1 1 1 1 1 1 
1 1 1 1 1 1 1 1 1 
1 1 1 1 1 1 1 1 1 
1 1 1 1 1 1 1 1 1 
1 1 1 1 1 1 1 1 1 
1 1 1 1 1 1 1 1 1 
1 1 1 1 1 1 1 1 1 
1 1 1 1 1 1 1 1 1 
1 1 1 1 1 1 1 1 1 
1 1 1 1 1 1 1 1 1 
1 1 1 1 1 1 1 1 1 
1 1 1 1 1 1 1 1 1 
1 1 1 1 1 1 1 1 1 
1 1 1 1 1 1 1 1 1 
1 1 1 1 1 1 1 1 1 
1 1 1 1 1 1 1 1 1 
1 1 1 1 1 1 1 1 1 
1 1 1 1 1 1 1 1 1 
1 1 1 1 1 1 1 1 1 
1 1 1 1 1 1 1 1 1 
1 1 1 
i 3 1488 int
0 0 0 0 0 0 0 0 0 
0 0 0 0 0 0 0 0 0 
0 0 0 0 0 0 0 0 0 
0 0 0 0 0 0 0 0 0 
0 0 0 0 0 0 0 0 0 
0 0 0 0 0 0 0 0 0 
0 0 0 0 0 0 0 0 0 
0 0 0 0 0 0 0 0 0 
0 0 0 0 0 0 0 0 0 
0 0 0 0 0 0 0 0 0 
0 0 0 0 0 0 0 0 0 
0 0 0 0 0 0 0 0 0 
0 0 0 0 0 0 0 0 0 
0 0 0 0 0 0 0 0 0 
0 0 0 0 0 0 0 0 0 
0 0 0 0 0 0 0 0 0 
0 0 0 0 0 0 0 0 0 
0 0 0 0 0 0 0 0 0 
0 0 0 0 0 0 0 0 0 
0 0 0 0 0 0 0 0 0 
0 0 0 0 0 0 0 0 0 
0 0 0 0 0 0 0 0 0 
0 0 0 0 0 0 0 0 0 
0 0 0 0 0 0 0 0 0 
0 0 0 0 0 0 0 0 0 
0 0 0 0 0 0 0 0 0 
0 0 0 0 0 0 0 0 0 
0 0 0 0 0 0 0 0 0 
0 0 0 0 0 0 0 0 0 
0 0 0 0 0 0 0 0 0 
0 0 0 0 0 0 0 0 0 
0 0 0 0 0 0 0 0 0 
0 0 0 0 0 0 0 0 0 
0 0 0 0 0 0 0 0 0 
0 0 0 0 0 0 0 0 0 
0 0 0 0 0 0 0 0 0 
0 0 0 0 0 0 0 0 0 
0 0 0 0 0 0 0 0 0 
0 0 0 0 0 0 0 0 0 
0 0 0 0 0 0 0 0 0 
0 0 0 0 0 0 0 0 0 
0 0 0 0 0 0 0 0 0 
0 0 0 0 0 0 0 0 0 
0 0 0 0 0 0 0 0 0 
0 0 0 0 0 0 0 0 0 
0 0 0 0 0 0 0 0 0 
0 0 0 0 0 0 0 0 0 
0 0 0 0 0 0 0 0 0 
0 0 0 0 0 0 0 0 0 
0 0 0 0 0 0 0 0 0 
0 0 0 0 0 0 0 0 0 
0 0 0 0 0 0 0 0 0 
0 0 0 0 0 0 0 0 0 
0 0 0 0 0 0 0 0 0 
0 0 0 0 0 0 0 0 0 
0 0 0 0 0 0 0 0 0 
0 0 0 0 0 0 0 0 0 
0 0 0 0 0 0 0 0 0 
0 0 0 0 0 0 0 0 0 
0 0 0 0 0 0 0 0 0 
0 0 0 0 0 0 0 0 0 
0 0 0 0 0 0 0 0 0 
0 0 0 0 0 0 0 0 0 
0 0 0 0 0 0 0 0 0 
0 0 0 0 0 0 0 0 0 
0 0 0 0 0 0 0 0 0 
0 0 0 0 0 0 0 0 0 
0 0 0 0 0 0 0 0 0 
0 0 0 0 0 0 0 0 0 
0 0 0 0 0 0 0 0 0 
0 0 0 0 0 0 0 0 0 
0 0 0 0 0 0 0 0 0 
0 0 0 0 0 0 0 0 0 
0 0 0 0 0 0 0 0 0 
0 0 0 0 0 0 0 0 0 
0 0 0 0 0 0 0 0 0 
0 0 0 0 0 0 0 0 0 
0 0 0 0 0 0 0 0 0 
0 0 0 0 0 0 0 0 0 
0 0 0 0 0 0 0 0 0 
0 0 0 0 0 0 0 0 0 
0 0 0 0 0 0 0 0 0 
0 0 0 0 0 0 0 0 0 
0 0 0 0 0 0 0 0 0 
0 0 0 0 0 0 0 0 0 
0 0 0 0 0 0 0 0 0 
0 0 0 0 0 0 0 0 0 
0 0 0 0 0 0 0 0 0 
0 0 0 0 0 0 0 0 0 
0 0 0 0 0 0 0 0 0 
0 0 0 0 0 0 0 0 0 
0 0 0 0 0 0 0 0 0 
0 0 0 0 0 0 0 0 0 
0 0 0 0 0 0 0 0 0 
0 0 0 0 0 0 0 0 0 
0 0 0 0 0 0 0 0 0 
0 0 0 0 0 0 0 0 0 
0 0 0 0 0 0 0 0 0 
0 0 0 0 0 0 0 0 0 
0 0 0 0 0 0 0 0 0 
0 0 0 0 0 0 0 0 0 
0 0 0 0 0 0 0 0 0 
0 0 0 0 0 0 0 0 0 
0 0 0 0 0 0 0 0 0 
0 0 0 0 0 0 0 0 0 
0 0 0 0 0 0 0 0 0 
0 0 0 0 0 0 0 0 0 
0 0 0 0 0 0 0 0 0 
0 0 0 0 0 0 0 0 0 
0 0 0 0 0 0 0 0 0 
0 0 0 0 0 0 0 0 0 
0 0 0 0 0 0 0 0 0 
0 0 0 0 0 0 0 0 0 
0 0 0 0 0 0 0 0 0 
0 0 0 0 0 0 0 0 0 
0 0 0 0 0 0 0 0 0 
0 0 0 0 0 0 0 0 0 
0 0 0 0 0 0 0 0 0 
0 0 0 0 0 0 0 0 0 
0 0 0 0 0 0 0 0 0 
0 0 0 0 0 0 0 0 0 
0 0 0 0 0 0 0 0 0 
0 0 0 0 0 0 0 0 0 
0 0 0 0 0 0 0 0 0 
0 0 0 0 0 0 0 0 0 
0 0 0 0 0 0 0 0 0 
0 0 0 0 0 0 0 0 0 
0 0 0 0 0 0 0 0 0 
0 0 0 0 0 0 0 0 0 
0 0 0 0 0 0 0 0 0 
0 0 0 0 0 0 0 0 0 
0 0 0 0 0 0 0 0 0 
0 0 0 0 0 0 0 0 0 
0 0 0 0 0 0 0 0 0 
0 0 0 0 0 0 0 0 0 
0 0 0 0 0 0 0 0 0 
0 0 0 0 0 0 0 0 0 
0 0 0 0 0 0 0 0 0 
0 0 0 0 0 0 0 0 0 
0 0 0 0 0 0 0 0 0 
0 0 0 0 0 0 0 0 0 
0 0 0 0 0 0 0 0 0 
0 0 0 0 0 0 0 0 0 
0 0 0 0 0 0 0 0 0 
0 0 0 0 0 0 0 0 0 
0 0 0 0 0 0 0 0 0 
0 0 0 0 0 0 0 0 0 
0 0 0 0 0 0 0 0 0 
0 0 0 0 0 0 0 0 0 
0 0 0 0 0 0 0 0 0 
0 0 0 0 0 0 0 0 0 
0 0 0 0 0 0 0 0 0 
0 0 0 0 0 0 0 0 0 
0 0 0 0 0 0 0 0 0 
0 0 0 0 0 0 0 0 0 
0 0 0 0 0 0 0 0 0 
0 0 0 0 0 0 0 0 0 
0 0 0 0 0 0 0 0 0 
0 0 0 0 0 0 0 0 0 
0 0 0 0 0 0 0 0 0 
0 0 0 0 0 0 0 0 0 
0 0 0 0 0 0 0 0 0 
0 0 0 0 0 0 0 0 0 
0 0 0 0 0 0 0 0 0 
0 0 0 0 0 0 0 0 0 
0 0 0 0 0 0 0 0 0 
0 0 0 0 0 0 0 0 0 
0 0 0 0 0 0 0 0 0 
0 0 0 0 0 0 0 0 0 
0 0 0 0 0 0 0 0 0 
0 0 0 0 0 0 0 0 0 
0 0 0 0 0 0 0 0 0 
0 0 0 0 0 0 0 0 0 
0 0 0 0 0 0 0 0 0 
0 0 0 0 0 0 0 0 0 
0 0 0 0 0 0 0 0 0 
0 0 0 0 0 0 0 0 0 
0 0 0 0 0 0 0 0 0 
0 0 0 0 0 0 0 0 0 
0 0 0 0 0 0 0 0 0 
0 0 0 0 0 0 0 0 0 
0 0 0 0 0 0 0 0 0 
0 0 0 0 0 0 0 0 0 
0 0 0 0 0 0 0 0 0 
0 0 0 0 0 0 0 0 0 
0 0 0 0 0 0 0 0 0 
0 0 0 0 0 0 0 0 0 
0 0 0 0 0 0 0 0 0 
0 0 0 0 0 0 0 0 0 
0 0 0 0 0 0 0 0 0 
0 0 0 0 0 0 0 0 0 
0 0 0 0 0 0 0 0 0 
0 0 0 0 0 0 0 0 0 
0 0 0 0 0 0 0 0 0 
0 0 0 0 0 0 0 0 0 
0 0 0 0 0 0 0 0 0 
0 0 0 0 0 0 0 0 0 
0 0 0 0 0 0 0 0 0 
0 0 0 0 0 0 0 0 0 
0 0 0 0 0 0 0 0 0 
0 0 0 0 0 0 0 0 0 
0 0 0 0 0 0 0 0 0 
0 0 0 0 0 0 0 0 0 
0 0 0 0 0 0 0 0 0 
0 0 0 0 0 0 0 0 0 
0 0 0 0 0 0 0 0 0 
0 0 0 0 0 0 0 0 0 
0 0 0 0 0 0 0 0 0 
0 0 0 0 0 0 0 0 0 
0 0 0 0 0 0 0 0 0 
0 0 0 0 0 0 0 0 0 
0 0 0 0 0 0 0 0 0 
0 0 0 0 0 0 0 0 0 
0 0 0 0 0 0 0 0 0 
0 0 0 0 0 0 0 0 0 
0 0 0 0 0 0 0 0 0 
0 0 0 0 0 0 0 0 0 
0 0 0 0 0 0 0 0 0 
0 0 0 0 0 0 0 0 0 
0 0 0 0 0 0 0 0 0 
0 0 0 0 0 0 0 0 0 
0 0 0 0 0 0 0 0 0 
0 0 0 0 0 0 0 0 0 
0 0 0 0 0 0 0 0 0 
0 0 0 0 0 0 0 0 0 
0 0 0 0 0 0 0 0 0 
0 0 0 0 0 0 0 0 0 
0 0 0 0 0 0 0 0 0 
0 0 0 0 0 0 0 0 0 
0 0 0 0 0 0 0 0 0 
0 0 0 0 0 0 0 0 0 
0 0 0 0 0 0 0 0 0 
0 0 0 0 0 0 0 0 0 
0 0 0 0 0 0 0 0 0 
0 0 0 0 0 0 0 0 0 
0 0 0 0 0 0 0 0 0 
0 0 0 0 0 0 0 0 0 
0 0 0 0 0 0 0 0 0 
0 0 0 0 0 0 0 0 0 
0 0 0 0 0 0 0 0 0 
0 0 0 0 0 0 0 0 0 
0 0 0 0 0 0 0 0 0 
0 0 0 0 0 0 0 0 0 
0 0 0 0 0 0 0 0 0 
0 0 0 0 0 0 0 0 0 
0 0 0 0 0 0 0 0 0 
0 0 0 0 0 0 0 0 0 
0 0 0 0 0 0 0 0 0 
0 0 0 0 0 0 0 0 0 
0 0 0 0 0 0 0 0 0 
0 0 0 0 0 0 0 0 0 
0 0 0 0 0 0 0 0 0 
0 0 0 0 0 0 0 0 0 
0 0 0 0 0 0 0 0 0 
0 0 0 0 0 0 0 0 0 
0 0 0 0 0 0 0 0 0 
0 0 0 0 0 0 0 0 0 
0 0 0 0 0 0 0 0 0 
0 0 0 0 0 0 0 0 0 
0 0 0 0 0 0 0 0 0 
0 0 0 0 0 0 0 0 0 
0 0 0 0 0 0 0 0 0 
0 0 0 0 0 0 0 0 0 
0 0 0 0 0 0 0 0 0 
0 0 0 0 0 0 0 0 0 
0 0 0 0 0 0 0 0 0 
0 0 0 0 0 0 0 0 0 
0 0 0 0 0 0 0 0 0 
0 0 0 0 0 0 0 0 0 
0 0 0 0 0 0 0 0 0 
0 0 0 0 0 0 0 0 0 
0 0 0 0 0 0 0 0 0 
0 0 0 0 0 0 0 0 0 
0 0 0 0 0 0 0 0 0 
0 0 0 0 0 0 0 0 0 
0 0 0 0 0 0 0 0 0 
0 0 0 0 0 0 0 0 0 
0 0 0 0 0 0 0 0 0 
0 0 0 0 0 0 0 0 0 
0 0 0 0 0 0 0 0 0 
0 0 0 0 0 0 0 0 0 
0 0 0 0 0 0 0 0 0 
0 0 0 0 0 0 0 0 0 
0 0 0 0 0 0 0 0 0 
0 0 0 0 0 0 0 0 0 
0 0 0 0 0 0 0 0 0 
0 0 0 0 0 0 0 0 0 
0 0 0 0 0 0 0 0 0 
0 0 0 0 0 0 0 0 0 
0 0 0 0 0 0 0 0 0 
0 0 0 0 0 0 0 0 0 
0 0 0 0 0 0 0 0 0 
0 0 0 0 0 0 0 0 0 
0 0 0 0 0 0 0 0 0 
0 0 0 0 0 0 0 0 0 
0 0 0 0 0 0 0 0 0 
0 0 0 0 0 0 0 0 0 
0 0 0 0 0 0 0 0 0 
0 0 0 0 0 0 0 0 0 
0 0 0 0 0 0 0 0 0 
0 0 0 0 0 0 0 0 0 
0 0 0 0 0 0 0 0 0 
0 0 0 0 0 0 0 0 0 
0 0 0 0 0 0 0 0 0 
0 0 0 0 0 0 0 0 0 
0 0 0 0 0 0 0 0 0 
0 0 0 0 0 0 0 0 0 
0 0 0 0 0 0 0 0 0 
0 0 0 0 0 0 0 0 0 
0 0 0 0 0 0 0 0 0 
0 0 0 0 0 0 0 0 0 
0 0 0 0 0 0 0 0 0 
0 0 0 0 0 0 0 0 0 
0 0 0 0 0 0 0 0 0 
0 0 0 0 0 0 0 0 0 
0 0 0 0 0 0 0 0 0 
0 0 0 0 0 0 0 0 0 
0 0 0 0 0 0 0 0 0 
0 0 0 0 0 0 0 0 0 
0 0 0 0 0 0 0 0 0 
0 0 0 0 0 0 0 0 0 
0 0 0 0 0 0 0 0 0 
0 0 0 0 0 0 0 0 0 
0 0 0 0 0 0 0 0 0 
0 0 0 0 0 0 0 0 0 
0 0 0 0 0 0 0 0 0 
0 0 0 0 0 0 0 0 0 
0 0 0 0 0 0 0 0 0 
0 0 0 0 0 0 0 0 0 
0 0 0 0 0 0 0 0 0 
0 0 0 0 0 0 0 0 0 
0 0 0 0 0 0 0 0 0 
0 0 0 0 0 0 0 0 0 
0 0 0 0 0 0 0 0 0 
0 0 0 0 0 0 0 0 0 
0 0 0 0 0 0 0 0 0 
0 0 0 0 0 0 0 0 0 
0 0 0 0 0 0 0 0 0 
0 0 0 0 0 0 0 0 0 
0 0 0 0 0 0 0 0 0 
0 0 0 0 0 0 0 0 0 
0 0 0 0 0 0 0 0 0 
0 0 0 0 0 0 0 0 0 
0 0 0 0 0 0 0 0 0 
0 0 0 0 0 0 0 0 0 
0 0 0 0 0 0 0 0 0 
0 0 0 0 0 0 0 0 0 
0 0 0 0 0 0 0 0 0 
0 0 0 0 0 0 0 0 0 
0 0 0 0 0 0 0 0 0 
0 0 0 0 0 0 0 0 0 
0 0 0 0 0 0 0 0 0 
0 0 0 0 0 0 0 0 0 
0 0 0 0 0 0 0 0 0 
0 0 0 0 0 0 0 0 0 
0 0 0 0 0 0 0 0 0 
0 0 0 0 0 0 0 0 0 
0 0 0 0 0 0 0 0 0 
0 0 0 0 0 0 0 0 0 
0 0 0 0 0 0 0 0 0 
0 0 0 0 0 0 0 0 0 
0 0 0 0 0 0 0 0 0 
0 0 0 0 0 0 0 0 0 
0 0 0 0 0 0 0 0 0 
0 0 0 0 0 0 0 0 0 
0 0 0 0 0 0 0 0 0 
0 0 0 0 0 0 0 0 0 
0 0 0 0 0 0 0 0 0 
0 0 0 0 0 0 0 0 0 
0 0 0 0 0 0 0 0 0 
0 0 0 0 0 0 0 0 0 
0 0 0 0 0 0 0 0 0 
0 0 0 0 0 0 0 0 0 
0 0 0 0 0 0 0 0 0 
0 0 0 0 0 0 0 0 0 
0 0 0 0 0 0 0 0 0 
0 0 0 0 0 0 0 0 0 
0 0 0 0 0 0 0 0 0 
0 0 0 0 0 0 0 0 0 
0 0 0 0 0 0 0 0 0 
0 0 0 0 0 0 0 0 0 
0 0 0 0 0 0 0 0 0 
0 0 0 0 0 0 0 0 0 
0 0 0 0 0 0 0 0 0 
0 0 0 0 0 0 0 0 0 
0 0 0 0 0 0 0 0 0 
0 0 0 0 0 0 0 0 0 
0 0 0 0 0 0 0 0 0 
0 0 0 0 0 0 0 0 0 
0 0 0 0 0 0 0 0 0 
0 0 0 0 0 0 0 0 0 
0 0 0 0 0 0 0 0 0 
0 0 0 0 0 0 0 0 0 
0 0 0 0 0 0 0 0 0 
0 0 0 0 0 0 0 0 0 
0 0 0 0 0 0 0 0 0 
0 0 0 0 0 0 0 0 0 
0 0 0 0 0 0 0 0 0 
0 0 0 0 0 0 0 0 0 
0 0 0 0 0 0 0 0 0 
0 0 0 0 0 0 0 0 0 
0 0 0 0 0 0 0 0 0 
0 0 0 0 0 0 0 0 0 
0 0 0 0 0 0 0 0 0 
0 0 0 0 0 0 0 0 0 
0 0 0 0 0 0 0 0 0 
0 0 0 0 0 0 0 0 0 
0 0 0 0 0 0 0 0 0 
0 0 0 0 0 0 0 0 0 
0 0 0 0 0 0 0 0 0 
0 0 0 0 0 0 0 0 0 
0 0 0 0 0 0 0 0 0 
0 0 0 0 0 0 0 0 0 
0 0 0 0 0 0 0 0 0 
0 0 0 0 0 0 0 0 0 
0 0 0 0 0 0 0 0 0 
0 0 0 0 0 0 0 0 0 
0 0 0 0 0 0 0 0 0 
0 0 0 0 0 0 0 0 0 
0 0 0 0 0 0 0 0 0 
0 0 0 0 0 0 0 0 0 
0 0 0 0 0 0 0 0 0 
0 0 0 0 0 0 0 0 0 
0 0 0 0 0 0 0 0 0 
0 0 0 0 0 0 0 0 0 
0 0 0 0 0 0 0 0 0 
0 0 0 0 0 0 0 0 0 
0 0 0 0 0 0 0 0 0 
0 0 0 0 0 0 0 0 0 
0 0 0 0 0 0 0 0 0 
0 0 0 0 0 0 0 0 0 
0 0 0 0 0 0 0 0 0 
0 0 0 0 0 0 0 0 0 
0 0 0 0 0 0 0 0 0 
0 0 0 0 0 0 0 0 0 
0 0 0 0 0 0 0 0 0 
0 0 0 0 0 0 0 0 0 
0 0 0 0 0 0 0 0 0 
0 0 0 0 0 0 0 0 0 
0 0 0 0 0 0 0 0 0 
0 0 0 0 0 0 0 0 0 
0 0 0 0 0 0 0 0 0 
0 0 0 0 0 0 0 0 0 
0 0 0 0 0 0 0 0 0 
0 0 0 0 0 0 0 0 0 
0 0 0 0 0 0 0 0 0 
0 0 0 0 0 0 0 0 0 
0 0 0 0 0 0 0 0 0 
0 0 0 0 0 0 0 0 0 
0 0 0 0 0 0 0 0 0 
0 0 0 0 0 0 0 0 0 
0 0 0 0 0 0 0 0 0 
0 0 0 0 0 0 0 0 0 
0 0 0 0 0 0 0 0 0 
0 0 0 0 0 0 0 0 0 
0 0 0 0 0 0 0 0 0 
0 0 0 0 0 0 0 0 0 
0 0 0 0 0 0 0 0 0 
0 0 0 0 0 0 0 0 0 
0 0 0 0 0 0 0 0 0 
0 0 0 0 0 0 0 0 0 
0 0 0 0 0 0 0 0 0 
0 0 0 0 0 0 0 0 0 
0 0 0 0 0 0 0 0 0 
0 0 0 0 0 0 0 0 0 
0 0 0 0 0 0 0 0 0 
0 0 0 0 0 0 0 0 0 
0 0 0 0 0 0 0 0 0 
0 0 0 0 0 0 0 0 0 
0 0 0 0 0 0 0 0 0 
0 0 0 0 0 0 0 0 0 
0 0 0 0 0 0 0 0 0 
0 0 0 0 0 0 0 0 0 
0 0 0 0 0 0 0 0 0 
0 0 0 0 0 0 0 0 0 
0 0 0 0 0 0 0 0 0 
0 0 0 0 0 0 0 0 0 
0 0 0 0 0 0 0 0 0 
0 0 0 0 0 0 0 0 0 
0 0 0 0 0 0 0 0 0 
0 0 0 0 0 0 0 0 0 
0 0 0 0 0 0 0 0 0 
0 0 0 0 0 0 0 0 0 
0 0 0 0 0 0 0 0 0 
0 0 0 0 0 0 0 0 0 
0 0 0 0 0 0 0 0 0 
0 0 0 0 0 0 0 0 0 
0 0 0 0 0 0 0 0 0 
0 0 0 0 0 0 0 0 0 
0 0 0 0 0 0 0 0 0 
0 0 0 0 0 0 0 0 0 
0 0 0 0 0 0 0 0 0 
0 0 0 0 0 0 0 0 0 
0 0 0 0 0 0 0 0 0 
0 0 0 0 0 0 0 0 0 
0 0 0 0 0 0 0 0 0 

v 3 1488 double
-0.00525827 0.00103552 1.39387e-07 -0.00178616 0.0100937 -5.87971e-13 -0.00170726 0.0175395 9.75224e-14 
-0.00126172 -0.00496513 -6.56673e-08 -0.00308197 0.00282862 9.07792e-11 0.00528453 -0.000335312 -1.56699e-07 
0.0263927 -0.0168065 -0.00051528 0.00135028 0.00213097 -4.44623e-13 0.00838114 0.0110632 -4.47335e-13 
-0.00225276 -0.010252 -6.39092e-10 0.00330185 0.00465358 -4.44634e-13 0.00381661 0.00330057 -2.73078e-07 
0.0131363 -0.00194459 9.75155e-14 -0.00160866 0.00723769 2.49073e-11 -0.00868978 0.0227303 9.60804e-05 
0.013096 -0.00112835 -0.00012929 0.00674444 0.0116127 9.75224e-14 -0.00478269 -0.0168293 -2.18812e-06 
-0.00722898 -0.0074093 -4.44627e-13 0.00920447 0.00555837 0.00108645 0.00120217 -0.0047803 0.00298315 