# vtk DataFile Version 4.0
Generated by LIGGGHTS
ASCII
DATASET POLYDATA
POINTS 14995 float
-0.136548 -0.261581 -0.995105 -0.157346 -0.24549 -0.994994 -0.125502 -0.253376 -0.99501 
-0.12692 -0.264757 -0.995031 -0.140554 -0.252413 -0.995043 -0.166915 -0.242713 -0.995039 
-0.147518 -0.24398 -0.995035 -0.155473 -0.250717 -0.986571 -0.143057 -0.247415 -0.986819 
-0.14978 -0.246553 -0.979503 -0.150689 -0.25349 -0.994998 -0.132738 -0.257897 -0.981262 
-0.158033 -0.249 -0.974368 -0.163203 -0.24578 -0.982597 -0.147393 -0.255612 -0.983214 
-0.165536 -0.244205 -0.969297 -0.123616 -0.246757 -0.977173 -0.1231 -0.26811 -0.986468 
-0.139816 -0.244859 -0.977795 -0.120232 -0.255972 -0.965972 -0.133048 -0.246937 -0.970756 
-0.140229 -0.253744 -0.968969 -0.149116 -0.25449 -0.973454 -0.170158 -0.240578 -0.977293 
-0.146308 -0.245049 -0.970259 -0.133223 -0.24954 -0.961045 -0.155791 -0.241726 -0.967838 
-0.143764 -0.257418 -0.960429 -0.153694 -0.251138 -0.965209 -0.161327 -0.246547 -0.960578 
-0.134469 -0.262536 -0.967013 -0.146164 -0.256151 -0.949881 -0.138829 -0.242947 -0.954638 
-0.154505 -0.251259 -0.955188 -0.125722 -0.253134 -0.952581 -0.127458 -0.240017 -0.963334 
-0.147001 -0.244743 -0.960251 -0.135829 -0.256907 -0.954487 -0.121473 -0.244527 -0.956417 
-0.162921 -0.244525 -0.950682 -0.15337 -0.240814 -0.952978 -0.140301 -0.248596 -0.946501 
-0.130983 -0.2587 -0.939944 -0.123663 -0.264381 -0.951898 -0.118732 -0.266579 -0.977617 
-0.11952 -0.24126 -0.969331 -0.118412 -0.24471 -0.995132 -0.110971 -0.272629 -0.975501 
-0.111237 -0.24635 -0.972713 -0.117875 -0.269858 -0.99501 -0.0940076 -0.271132 -0.978825 
-0.0874691 -0.281819 -0.986239 -0.0814257 -0.262763 -0.995092 -0.0721353 -0.250089 -0.995023 
-0.0946821 -0.260033 -0.988825 -0.0709708 -0.286378 -0.995039 -0.107842 -0.263958 -0.995032 
-0.0793541 -0.24321 -0.99502 -0.0821747 -0.282116 -0.995041 -0.0803115 -0.2752 -0.988033 
-0.104232 -0.271333 -0.986549 -0.0919843 -0.280354 -0.995004 -0.0769509 -0.284713 -0.986988 
-0.0986215 -0.272982 -0.995066 -0.108484 -0.274372 -0.995042 -0.0632211 -0.278794 -0.99503 
-0.0971576 -0.278375 -0.986726 -0.0979554 -0.245064 -0.987507 -0.0729896 -0.276655 -0.995037 
-0.0652296 -0.268602 -0.995022 -0.103512 -0.249706 -0.99507 -0.0917863 -0.2468 -0.995106 
-0.0834601 -0.252308 -0.995042 -0.0604409 -0.288717 -0.99501 -0.0674488 -0.274253 -0.987106 
-0.0866881 -0.271869 -0.99501 -0.11344 -0.254376 -0.985002 -0.0656527 -0.284061 -0.986926 
-0.0826087 -0.248722 -0.985767 -0.0741683 -0.267861 -0.990609 -0.0904886 -0.244628 -0.980812 
-0.0771584 -0.256566 -0.9886 -0.0703882 -0.25992 -0.995112 -0.0671588 -0.278898 -0.973675 
-0.0739926 -0.243629 -0.986607 -0.101802 -0.261754 -0.970334 -0.114059 -0.27208 -0.984986 
-0.0674082 -0.255254 -0.986967 -0.0816729 -0.265864 -0.984467 -0.084412 -0.273782 -0.979074 
-0.102334 -0.276708 -0.978364 -0.0675214 -0.26982 -0.977787 -0.0625448 -0.247316 -0.995113 
-0.0619974 -0.288502 -0.978797 -0.108907 -0.241296 -0.995017 -0.0907604 -0.253366 -0.975981 
-0.0709391 -0.267877 -0.968603 -0.0744322 -0.276675 -0.980125 -0.0914711 -0.280554 -0.977237 
-0.0740665 -0.251531 -0.98058 -0.0735946 -0.258393 -0.972779 -0.0816653 -0.283456 -0.978272 
-0.0645811 -0.258402 -0.977849 -0.0716687 -0.286221 -0.978695 -0.0727366 -0.26243 -0.981879 
-0.0785086 -0.266819 -0.975038 -0.0889391 -0.272196 -0.970342 -0.0863271 -0.282107 -0.968792 
-0.0788251 -0.275965 -0.971094 -0.0880142 -0.263811 -0.97576 -0.0824033 -0.256919 -0.980138 
-0.100317 -0.249917 -0.979238 -0.0620532 -0.245225 -0.966654 -0.0824976 -0.254508 -0.970504 
-0.0947955 -0.251405 -0.96208 -0.0883408 -0.246815 -0.968246 -0.0999062 -0.263078 -0.955426 
-0.0652864 -0.287698 -0.969364 -0.107793 -0.27469 -0.965997 -0.083412 -0.2638 -0.966891 
-0.0760714 -0.256709 -0.96323 -0.0981308 -0.246377 -0.97013 -0.0815336 -0.24621 -0.976127 
-0.0828174 -0.272818 -0.962502 -0.106005 -0.24853 -0.964238 -0.0857946 -0.25568 -0.961124 
-0.0944026 -0.271877 -0.962009 -0.080119 -0.283191 -0.960965 -0.0973571 -0.277544 -0.969737 
-0.0712575 -0.27724 -0.964721 -0.0752725 -0.285151 -0.969466 -0.0694954 -0.248944 -0.972149 
-0.0607311 -0.265767 -0.971711 -0.069757 -0.240391 -0.995035 -0.086987 -0.240501 -0.989212 
-0.101999 -0.276841 -0.957911 -0.117542 -0.270595 -0.968273 -0.0776038 -0.246579 -0.966841 
-0.0942999 -0.241421 -0.962053 -0.0711395 -0.251936 -0.955967 -0.0886358 -0.264766 -0.958099 
-0.108102 -0.257343 -0.957177 -0.112742 -0.267612 -0.959962 -0.0724681 -0.281215 -0.952505 
-0.112697 -0.241382 -0.961664 -0.061263 -0.261184 -0.959355 -0.0653869 -0.272031 -0.95857 
-0.0895833 -0.280293 -0.959509 -0.0664451 -0.254398 -0.964415 -0.0832015 -0.282434 -0.951496 
-0.0775413 -0.260481 -0.948283 -0.0775146 -0.272819 -0.954077 -0.0685672 -0.286856 -0.959965 
-0.0724485 -0.265051 -0.959134 -0.101824 -0.249854 -0.955024 -0.0601942 -0.257009 -0.995028 
-0.0608854 -0.274845 -0.967076 -0.106727 -0.240906 -0.985286 -0.0676215 -0.242326 -0.958801 
-0.0854304 -0.245041 -0.958935 -0.117532 -0.240405 -0.944966 -0.0925911 -0.246133 -0.952158 
-0.11181 -0.252092 -0.945806 -0.0755179 -0.245177 -0.943282 -0.0618576 -0.248246 -0.953102 
-0.0919226 -0.277665 -0.950049 -0.0811192 -0.250404 -0.951766 -0.0995306 -0.255322 -0.94637 
-0.0924756 -0.256705 -0.953584 -0.0585357 -0.255786 -0.970361 -0.0574629 -0.282081 -0.950806 
-0.0573165 -0.252115 -0.961049 -0.0555528 -0.269235 -0.958127 -0.0593882 -0.264205 -0.988183 
-0.0580054 -0.24537 -0.981082 -0.0407991 -0.24691 -0.966186 -0.0555647 -0.289653 -0.971269 
-0.0550162 -0.261146 -0.978472 -0.0268777 -0.28546 -0.987328 -0.0424219 -0.28094 -0.995049 
-0.0534583 -0.281561 -0.995013 -0.0397088 -0.292266 -0.99501 -0.0270501 -0.293707 -0.995017 
-0.0155328 -0.294589 -0.995008 -0.00734974 -0.262827 -0.995027 -0.0293556 -0.261321 -0.995038 
-0.0397897 -0.263587 -0.995028 -0.04579 -0.271566 -0.995026 -4.74972e-05 -0.262082 -0.985451 
-0.0350839 -0.266976 -0.986899 -0.0357071 -0.272672 -0.995048 -0.001948 -0.279343 -0.99501 
-0.0186661 -0.256018 -0.99501 -0.00741392 -0.287703 -0.995037 -0.0331319 -0.284478 -0.995002 
-0.0557692 -0.271829 -0.995009 -0.0496943 -0.290812 -0.99505 -0.0136554 -0.28393 -0.988233 
-0.0170567 -0.266531 -0.995028 -0.020665 -0.285891 -0.995064 -0.04756 -0.253645 -0.995096 
-0.0214536 -0.29397 -0.986752 -0.0454179 -0.265717 -0.987 -0.0513006 -0.262896 -0.995016 
-0.0308197 -0.276001 -0.985783 -0.0277649 -0.25107 -0.995034 -0.0378021 -0.250617 -0.995006 
-0.0209431 -0.277613 -0.985779 -0.0399738 -0.257002 -0.987546 -0.00540276 -0.248809 -0.990103 
-0.054162 -0.27596 -0.980516 -0.045638 -0.286232 -0.987245 -0.00817157 -0.294924 -0.988247 
-0.026645 -0.276746 -0.995062 -0.0166645 -0.27669 -0.99501 -0.0266045 -0.288723 -0.972756 
-0.0331891 -0.293184 -0.987063 -0.0253745 -0.268578 -0.989509 -0.0409958 -0.292153 -0.980693 
-0.0181779 -0.244024 -0.984051 -0.0268808 -0.243294 -0.988853 -0.00830022 -0.272241 -0.991919 
-0.0407038 -0.275296 -0.986903 -0.0363336 -0.284137 -0.984402 -0.00991642 -0.277231 -0.981877 
-0.0145521 -0.253164 -0.972405 -0.0191514 -0.244873 -0.99501 -0.01372 -0.260921 -0.987497 
-0.00498303 -0.286474 -0.984019 -0.00793621 -0.267559 -0.982877 -0.0359882 -0.245676 -0.985578 
-0.0264068 -0.256274 -0.981065 -0.0499768 -0.256962 -0.986037 -0.0363082 -0.272096 -0.978423 
-0.007985 -0.246136 -0.975691 -0.000528201 -0.295038 -0.995023 -0.00922601 -0.258334 -0.978989 
-0.0453276 -0.246267 -0.988912 -0.0125047 -0.294308 -0.960097 -0.0468944 -0.26545 -0.97269 
-0.0141308 -0.294699 -0.979994 -0.0254062 -0.273463 -0.977799 -0.0351102 -0.245516 -0.975294 
-0.0276137 -0.266919 -0.9706 -0.0399129 -0.262655 -0.97928 -0.0180336 -0.268566 -0.98281 
-0.0425921 -0.274629 -0.971091 -0.0440161 -0.251294 -0.980431 -0.044759 -0.291582 -0.971449 
-0.0509961 -0.290606 -0.980117 -0.0418534 -0.283251 -0.976145 -0.0130244 -0.294722 -0.970053 
-0.0373174 -0.264879 -0.969925 -0.0132399 -0.27055 -0.968786 -0.0237685 -0.242466 -0.976 
-0.0441244 -0.259547 -0.965001 -0.0488227 -0.255641 -0.972873 -0.00138689 -0.264263 -0.975701 
-0.00529789 -0.292238 -0.975836 -0.039281 -0.283433 -0.966527 -0.0511156 -0.24629 -0.967831 
-0.0388719 -0.254854 -0.972651 -0.0160313 -0.285371 -0.96265 -0.0519486 -0.290422 -0.961936 
-0.0374756 -0.292642 -0.963214 -0.00363881 -0.29505 -0.966386 -0.012598 -0.285375 -0.976877 
-0.0224985 -0.293932 -0.959328 -0.032756 -0.275427 -0.969653 -0.0491224 -0.28272 -0.96811 
-0.0227773 -0.248897 -0.968308 -0.0306915 -0.255447 -0.966699 -0.0425871 -0.269185 -0.962653 
-0.00105455 -0.279126 -0.969767 -0.0438565 -0.241576 -0.978183 -0.034467 -0.263737 -0.959793 
-0.0535088 -0.262848 -0.965478 -0.0315312 -0.280938 -0.960786 -0.0511171 -0.273011 -0.966194 
-0.0165445 -0.245693 -0.952607 -0.0033623 -0.251516 -0.960853 -0.0043114 -0.254267 -0.971196 
-0.00199319 -0.261271 -0.96442 -0.010522 -0.246622 -0.966156 -0.00782084 -0.286235 -0.968191 
-0.0143563 -0.256769 -0.962986 -0.0234402 -0.261569 -0.96157 -0.0331198 -0.254485 -0.956156 
-0.0391398 -0.270259 -0.953313 -0.0452866 -0.278495 -0.959916 -0.04745 -0.251879 -0.959587 
-0.0266128 -0.272416 -0.962329 -0.00641624 -0.285032 -0.95835 -0.0510467 -0.240643 -0.995005 
-0.0397405 -0.240649 -0.994999 -0.0483754 -0.26252 -0.956489 -0.0257618 -0.286273 -0.953928 
-0.0429234 -0.287586 -0.956511 -0.0183661 -0.261195 -0.948376 -0.0170985 -0.280108 -0.947052 
-0.0186874 -0.27755 -0.956662 -0.0157827 -0.294202 -0.950571 -0.0256011 -0.240216 -0.938032 
-0.00716291 -0.275169 -0.955893 -0.00425858 -0.294155 -0.954079 -0.0406829 -0.242396 -0.950191 
-0.0278133 -0.27649 -0.952612 -0.00179614 -0.262014 -0.949512 -0.00789945 -0.275807 -0.94192 
-0.0596847 -0.264501 -0.950099 -0.045541 -0.264052 -0.940159 -0.034161 -0.28058 -0.938337 
-0.0273664 -0.289927 -0.944531 -0.0245081 -0.27174 -0.944429 -0.0355989 -0.283748 -0.950208 
0.00189075 -0.246131 -0.974259 0.0035912 -0.25004 -0.941509 0.000207804 -0.272255 -0.986741 
0.00550018 -0.258232 -0.970207 0.00493711 -0.295014 -0.974482 0.0546166 -0.262361 -0.962084 
[...]
POINT_DATA 14995
FIELD FieldData 7
id 1 14995 int
196 202 880 4791 6203 1778 5015 3769 2447 
6131 2528 5080 1428 2889 5461 6657 4417 3132 
3980 9008 7063 8492 8311 4673 9106 8591 7425 
3992 7158 10721 6761 8298 8469 7456 10673 8553 
7446 8357 12138 7189 11395 10744 13518 13974 1832 
10892 818 4263 5272 572 265 294 536 1777 
1514 2027 3106 454 528 1858 773 740 1027 
3730 1086 3321 4708 4790 115 3142 1022 3453 
1981 2250 4598 1452 585 3933 2434 1491 1234 
6332 6336 4071 4645 4508 4806 3812 3637 3766 
5115 7900 322 5045 3352 6219 7586 2815 5330 
7879 3918 7726 4287 4290 4313 4164 5476 7019 
5788 9064 9231 9268 7565 6691 7545 6782 5792 
4457 5852 5869 8247 6839 5763 8253 6714 4361 
4082 8314 10708 10771 10912 10979 8428 1853 1202 
5975 7400 7180 5686 9421 2839 8303 10885 9292 
6750 10878 10981 8461 5977 9656 8350 11107 7213 
8594 12313 3422 8143 5398 6640 9158 8826 8621 
7100 5847 11292 5604 11521 8850 13612 5147 10512 
8223 11124 1555 4513 7245 5301 1333 3279 429 
1550 562 395 1828 122 1654 1790 3277 364 
190 948 1044 331 3134 1553 1100 3120 3276 
930 2312 3082 4684 4729 4941 2010 350 155 
688 4939 3029 2090 3364 2259 900 3698 1145 
4697 4837 2195 2350 2700 2784 6224 2060 4959 
4891 4862 2203 2474 2134 5271 2639 6415 4452 
7912 946 5441 925 5059 6548 6507 4419 6445 
2669 7762 4262 6690 4236 4238 4370 5711 4180 
6790 4140 8176 4160 9422 3357 4559 5477 5539 
8291 5542 4279 6622 9109 6804 8325 9400 5710 
7431 7387 10894 6701 6833 4349 10601 9435 5982 
7145 9476 5834 7255 9287 10958 7319 7466 8188 
8336 9808 8423 12394 12487 851 3332 12158 7323 
8912 7283 9665 10080 12083 12117 5764 11608 12024 
11576 12019 12424 8714 9876 12248 8878 11867 13675 
5379 6639 4581 5927 2220 1113 669 6403 6536 
3411 2429 1641 35 17 131 328 1717 1599 
1890 1788 608 2189 3230 3408 477 3403 759 
3069 1903 3203 3419 2465 1128 3285 1082 2460 
911 2264 683 4860 5060 37 172 706 1571 
1577 1595 2021 797 4677 4006 2255 4571 4968 
1187 3365 4562 1215 2187 4879 2548 2199 3952 
3738 5341 2300 2578 4847 1365 6126 6358 6517 
3735 4127 101 212 2848 2597 4032 1702 2299 
4767 5530 2873 6466 3782 5091 5404 7507 3726 
5237 2899 5263 4305 7748 7922 2758 6847 5173 
5994 5472 5747 5666 5821 9394 9468 5355 3846 
9538 2849 2901 8006 6743 4378 9103 9457 9773 
4249 6023 9429 10929 11034 5698 8212 6617 5777 
8579 7164 10969 10550 10579 8634 12112 12208 2748 
7133 9657 12333 7453 12236 12483 10699 10837 11150 
12087 8938 11331 8125 11418 10210 10411 9813 10320 
13666 13687 13890 13950 14039 9077 9848 11231 5367 
5078 8012 5227 3982 3000 2913 1997 4631 3916 
3547 1585 263 1668 127 3041 678 2594 34 
1506 3413 1081 588 1020 2461 4793 25 2041 
3224 2016 4748 1409 1244 2409 1498 3396 2611 
1489 2114 1374 4087 6068 6091 6132 6414 2552 
2979 4097 6124 4768 3953 4028 2674 5137 2786 
2463 2214 3775 3941 6071 3661 6377 4615 7855 
8063 4372 6545 7640 7985 7575 7954 7631 5499 
6854 9122 7574 5919 7656 6612 8293 9469 9501 
5640 9037 8256 8324 6681 10690 7308 11022 8010 
9384 10824 10911 10950 10625 10595 10004 9731 10507 
10130 8637 12215 12245 2168 5225 9638 8113 10902 
7212 12411 10697 8724 8896 8534 11461 8906 8844 
11303 13644 13645 9475 9243 1886 7913 6963 2676 
230 1794 561 788 3275 3538 4662 1518 551 
867 4778 3384 1106 2267 1454 1355 4619 532 
1634 709 6516 6226 2260 4870 7602 6482 7706 
6778 8504 6852 5498 9066 10817 10807 6721 8578 
10127 8401 6491 5130 3564 10852 12281 12300 9797 
10220 11372 13864 486 2068 343 1910 929 3440 
3566 2050 790 1866 1730 1926 842 735 830 
2202 1173 3181 436 264 4946 2045 4646 2104 
2239 3832 1363 1271 2081 3632 3742 6143 6481 
135 2123 985 1467 1395 885 4627 2630 2918 
3886 1375 6194 1203 3759 3966 1342 6086 3820 
7584 7898 2613 3978 5416 5505 8071 3647 9192 
9224 8 1453 3603 5250 7775 2725 7203 10554 
10707 1420 5719 7997 1142 8464 10976 10575 10910 
7153 10027 7484 9739 8290 8927 12135 12155 12239 
12416 8602 9636 10038 9973 10129 13954 1196 4404 
4074 3009 615 987 3325 1807 1530 3297 206 
1814 108 335 1672 1677 51 850 3036 781 
325 666 3014 1284 939 1870 956 2579 4650 
4792 4869 3409 912 855 1164 1437 4878 4953 
725 2319 1913 3488 2100 589 4951 2505 4120 
1361 4693 4118 4934 6392 6469 4706 2866 3450 
4061 3694 6097 6353 2719 3328 5455 2660 3875 
2635 3959 5145 2951 4434 3578 7974 8019 3884 
2256 2520 4566 7124 7661 4534 7625 7668 6768 
6556 7093 4376 5090 5660 9285 4426 1724 2978 
5574 5310 6140 9137 6772 4469 7837 6699 5981 
8180 10646 10827 10856 10943 11003 7563 1032 4088 
5062 1722 6550 6082 3935 3867 9079 6628 9041 
5725 5308 7037 5695 10631 8375 9574 8559 4409 
9864 8566 4138 7262 7347 9671 7167 7277 9639 
10786 1379 606 12531 3712 1624 1085 4721 6624 
10967 12279 7389 12124 12318 12341 11384 11542 9840 
672 10577 8443 10922 9710 837 97 2732 12289 
12384 9509 4402 2769 6118 3680 7749 9486 7835 
6905 4494 2064 3438 2721 2689 1699 2537 2089 
1700 3283 990 4835 1957 1925 721 1524 3191 
543 3534 4544 1533 3234 1939 3032 4864 535 
1623 72 1510 392 333 1016 2225 3881 4921 
3844 4783 4868 4546 4964 2885 6197 6383 6449 
832 4696 4839 3180 2419 4727 4642 3908 6007 
6282 5143 7505 7658 8059 5486 1298 2589 7582 
6547 3388 7947 6581 4390 5488 9239 9342 9567 
5503 9256 7501 5668 6930 8582 5760 8610 5538 
8296 10629 10863 10975 9460 906 1408 5167 3781 
2608 5616 9228 5180 7864 6928 10613 10946 9048 
8629 10921 4265 4436 9646 10652 10681 10754 8575 
8208 10804 9047 10720 7444 7314 8500 8178 8742 
12195 53 2468 8439 8453 8960 11492 9735 8733 
10717 8122 12302 12071 10125 7156 8772 13109 5997 
8616 9664 10010 9743 12878 11511 13615 13820 4319 
2244 10630 5644 5153 5673 5840 856 2665 6121 
6459 6559 5348 9370 164 2167 2764 5253 4248 
3570 4715 2596 2373 287 1617 495 1693 646 
1723 3456 2132 2522 4541 2067 802 459 2432 
2448 4851 685 1516 2529 1753 4504 4505 5007 
1253 2546 2508 1261 1210 1021 2096 2283 2697 
6253 6485 6502 2524 4593 2485 1265 426 1588 
2999 2347 2240 5464 1328 5357 7893 7897 4611 
1301 3670 4480 4523 6419 5190 4756 2804 6247 
4134 2502 4278 4051 5334 5236 4143 4438 3826 
9128 9291 5246 7509 5422 6393 275 6561 2148 
6063 4486 9369 7128 5773 9385 6819 8363 10647 
10675 10834 10970 2715 6848 8409 9279 3131 6408 
546 4243 9540 6796 8129 8251 10593 10773 11020 
9622 8184 5696 9792 9948 7417 8168 7364 8429 
8163 12102 12476 5224 5658 4495 6725 8586 6989 
7356 12393 7169 9849 8279 9760 11215 9946 11566 
10389 10205 13718 13736 13979 14033 14038 3944 3997 
455 7735 3066 3108 648 1272 4936 2753 1916 
26 78 962 1880 618 3065 1664 408 991 
786 858 622 873 577 1124 261 583 2329 
1732 1718 1876 4520 691 3378 4873 2457 4621 
4940 4983 4527 1214 3866 5419 1483 6271 6454 
128 1619 1118 1716 3068 779 5565 6228 6077 
4077 3164 5294 7600 2934 5165 7980 5667 6937 
4194 9320 9528 9057 6201 7526 6978 6577 9445 
4346 5769 2906 5767 6580 8114 6816 5884 10026 
9790 6971 10545 10638 10639 10711 10753 10823 4510 
1075 5520 9304 4829 8310 6957 10745 5828 10964 
11157 7339 9655 8419 7139 7152 8455 12046 12263 
9676 8349 11170 8448 5964 1446 9828 6938 8841 
8861 5600 9804 8331 12520 9601 11091 13634 13881 
8959 10747 7276 4214 373 7827 2162 6080 4448 
3165 7125 942 3498 3669 2859 2336 3835 1800 
31 423 1660 266 107 3079 512 3257 548 
463 2403 3004 644 886 4507 1780 2073 292 
182 4815 1252 4038 4794 2138 2268 1447 624 
3882 4651 2541 2622 2075 2806 3991 6029 3784 
2386 6265 6484 4004 3642 2824 1484 5563 2222 
3714 2828 2771 4035 6638 5378 6501 4339 7530 
7583 7932 3060 4045 4754 2818 6530 4344 5288 
8029 7851 7962 2927 4332 3162 1470 4272 628 
4157 5555 9470 8333 7101 6797 9093 8390 5682 
6013 8449 6630 6829 1371 9767 9833 10547 10608 
10937 10954 4369 4364 1962 10585 9276 8399 9387 
6951 9728 9261 8244 7372 5885 6856 10567 10106 
8407 9913 7472 9803 7258 9815 9740 7265 11362 
9761 10122 11126 12043 12226 12396 6952 6998 1990 
5504 8328 12078 12564 12405 6641 7235 11018 11023 
12436 8265 8677 12511 12345 12561 11187 9901 10014 
11599 12115 8647 11626 8855 5905 11606 13969 809 
5809 9503 3719 5535 7591 7018 8546 7006 2772 
4999 5281 1179 4710 2475 5471 1061 538 1340 
2802 1938 1527 861 16 409 3342 1842 1976 
1600 1983 329 1964 3407 414 1905 1582 3296 
1574 3542 1033 1186 4880 926 5054 4587 3306 
3483 3527 2593 3546 2501 3393 4053 2535 1497 
2456 4854 2087 4597 1469 1246 865 2382 2406 
2789 6017 2826 726 1461 3754 4633 2835 6352 
2855 2509 6193 6313 6048 2857 3673 7637 7781 
8005 575 6259 3368 817 1200 7611 2994 5384 
1273 6980 2200 4462 1255 5493 2989 7059 5220 
8427 2188 4153 2415 7753 7568 5944 9413 6990 
5545 5531 6668 9491 7216 4487 6680 8081 8397 
6965 6942 10980 4737 5509 6979 5887 10831 10959 
7304 9087 9244 9345 10518 10866 8612 5734 11541 
7168 5656 9631 8230 10938 9939 7434 10783 10607 
10872 8353 12484 12541 8088 12241 12042 7175 9865 
8893 12252 12322 11121 8846 9778 10037 11488 11499 
8858 12336 9912 8740 8881 13581 13650 13749 13905 
2843 4003 5485 9759 6119 6892 3264 2043 194 
566 3307 4556 462 163 472 347 509 1698 
1946 3298 3478 3427 3921 2398 1955 3062 309 
3008 636 605 898 540 1299 3679 1366 3746 
4915 2375 2624 2427 6164 1846 3752 3976 3818 
6055 2936 1324 1099 6065 5591 4382 7097 7581 
4226 6961 4897 2304 1257 9177 6880 3667 5382 
9257 9259 7704 7732 6888 10953 10508 10925 11052 
9031 1216 5951 9736 5631 10916 10635 10124 12033 
10682 8105 9943 8795 12170 8969 9881 507 2052 
508 3258 1826 80 1929 1763 1018 888 453 
3465 4944 4898 4753 6006 159 1036 5370 2612 
6034 2752 521 5340 1610 2761 123 6202 6535 
9182 4427 9417 7677 2164 9127 10564 6378 4188 
3090 5650 2963 5874 11212 3217 6656 4362 8731 
12223 10939 8845 4455 8888 4429 6831 9322 7967 
4445 6145 3930 6207 7665 5063 339 2276 2966 
1177 2277 33 1909 441 1739 568 2062 515 
3337 3391 3140 338 1891 428 2040 3011 3418 
658 958 1131 949 2181 3073 952 2555 841 
1774 3683 170 375 3018 250 4866 3176 1694 
4699 701 4690 3064 3114 3202 3504 2358 3358 
4730 2782 2627 4910 2221 2353 989 2609 2346 
3715 6421 2883 1911 4529 3877 418 4930 6183 
6570 6155 2693 4113 3870 1353 1133 2973 1345 
4694 3932 3912 6391 7679 4779 6173 3842 5172 
4632 4000 6384 6225 9018 9307 5768 7813 3979 
3778 5287 5925 9531 5086 9451 8011 9310 4220 
9674 238 6412 224 3630 7836 416 3426 3970 
4491 9027 8483 10934 8358 7201 9750 708 5038 
8240 10806 8323 7210 7257 12125 12160 12435 12462 
12209 9620 8295 12174 11522 11127 12636 10055 11514 
10003 11103 13732 13851 14010 4040 9610 10782 5400 
9553 1134 7497 9612 2098 8580 4691 3261 3125 
1543 402 2046 458 632 556 1504 3555 3046 
821 647 4667 389 4749 1804 4931 1316 4850 
67 3030 1269 2363 4678 2233 1450 5073 2257 
723 2543 5517 1462 6179 6190 6401 6496 1587 
3035 1980 2510 2887 3692 2118 3942 7515 1754 
3958 5612 7857 3880 6105 7983 8057 9186 9431 
4015 2905 3505 4522 4389 9119 6032 6774 5175 
3390 770 2462 7419 8592 6795 10589 10021 11122 
8678 10089 7494 12261 10873 12308 801 5049 6500 
3510 2919 3957 3659 6134 3557 5343 4970 2088 
9334 2165 366 527 5431 5502 6172 3840 5543 
2411 293 3710 2361 5452 4209 2306 4540 1360 
3220 3563 355 3085 547 3284 843 4937 306 
3552 3151 2275 4092 352 4976 3340 2511 2194 
3972 1879 602 6003 2694 6252 3588 3864 7928 
7973 3232 438 6541 6053 4024 5450 77 4545 
6054 4928 7847 4374 5033 5536 5089 4471 6464 
6931 1194 6636 7022 7829 8008 6694 9151 9396 
9504 6394 7621 5126 9175 9489 6977 9080 4218 
5338 3926 9190 9349 5908 9493 9139 6953 6707 
8392 6763 9049 10654 9181 8462 9926 11255 9677 
10814 9959 12277 12534 8246 10553 5948 12552 9845 
10084 11077 12542 8710 13878 13962 210 3290 7907 
4933 6229 8498 9506 9226 6793 9017 5637 9554 
5753 4251 4080 4351 9063 4811 518 484 810 
451 6527 1274 811 1114 4763 3252 522 695 
1869 4623 2610 4703 3457 3582 2569 5030 734 
3672 5354 4089 5157 6191 4111 3707 3100 1438 
6569 6146 3803 6015 4068 5277 7642 8025 2932 
3514 882 545 3627 1760 6376 4800 5596 5583 
4328 1373 6204 4268 6351 5346 6470 7777 6127 
4950 6749 5432 6902 5495 5149 4472 4098 6682 
9125 9159 9219 9266 1218 4019 4481 4185 6882 
9344 9537 8389 4398 7508 4150 5814 7092 9165 
6941 8598 5726 7437 8121 10685 10736 10826 11001 
8080 4191 6594 7121 9108 5968 8023 9565 8430 
6832 7326 8307 10870 9575 8306 9953 10033 9852 
8650 8974 12357 5302 8712 5915 9975 11137 1478 
12431 12412 12137 8825 12831 14057 9363 4453 10622 
9645 5046 1197 7746 4894 6257 277 3024 6734 
5085 1711 6008 3975 1670 4550 1885 6199 3550 
3107 448 792 2066 976 977 2577 6 2433 
4554 4617 634 4676 2421 4517 3810 1369 3580 
6156 6554 3 1151 2449 4988 6161 6116 6281 
6348 5179 4119 5533 2670 5474 3022 2033 4801 
3888 2858 4473 5201 4441 5576 8354 8300 7559 
6896 5259 9519 3621 8352 6587 8222 6715 8171 
7048 7682 9437 8201 8431 10877 10897 10948 11008 
2055 9403 2904 5511 9412 10700 8411 5368 10523 
5671 11035 8209 8099 9173 11442 7188 9742 10057 
5647 7362 8313 12219 12320 2335 2655 7572 10555 
9659 7171 11014 12171 9520 12536 10111 8338 9722 
12028 9589 13702 13777 10063 4276 6970 7788 3495 
4981 3423 4871 5619 6724 9411 2787 5728 6648 
3802 2186 4762 313 502 3095 1829 603 1590 
141 401 358 995 3449 256 476 2044 840 
1849 3474 655 3443 3204 864 2430 4543 3059 
653 3055 4515 1143 1341 2216 1256 4025 917 
1277 812 2912 1182 6298 6417 286 3774 4072 
4774 2941 4830 4659 2028 6038 4116 2952 2708 
3678 4449 7532 4722 5529 5526 1339 6844 3591 
4044 4258 2766 5516 6973 6966 9058 2832 1812 
6168 2803 8037 6924 9144 9550 2779 9112 9169 
7755 8532 8260 1319 5761 9142 8518 5754 6889 
7086 10678 10985 11006 4961 9487 4315 9462 6822 
7222 7490 3737 6618 10853 7204 9789 8250 7321 
9993 8312 9878 8197 7143 7146 4312 8747 12352 
12459 10998 9651 12250 12010 9100 7461 9426 9724 
7104 8765 8645 9583 8947 9699 10112 11136 9824 
11279 8892 13608 14036 10655 12530 5136 8516 8329 
7408 4178 6147 2278 3689 6152 7653 4810 1347 
785 1264 3951 1359 4979 1836 1696 1822 2445 
1060 1531 1297 5056 379 1852 2019 1956 760 
1007 3529 1932 60 677 746 1639 1011 3401 
1221 4555 4789 3251 909 3098 967 82 2341 
281 1865 3323 4516 5058 2130 4788 3929 1425 
2237 4049 6416 6430 3856 3078 4731 1161 1494 
3965 3681 2286 3507 5607 5439 5424 6413 2685 
5623 7511 7699 7878 845 2671 1228 3890 719 
3859 6020 3762 3761 4322 7865 4144 4291 7106 
4132 7800 7867 5429 7127 5790 6646 764 9500 
9214 7056 5558 4320 6767 6886 4709 8120 6788 
9508 6625 5146 3446 6920 6901 8506 8191 10719 
9337 7360 8271 6843 7131 7500 9967 7485 11404 
9594 8092 7392 8513 10009 7297 12032 12082 12182 
12183 12505 10713 1562 2955 8340 10099 8254 9584 
8658 9544 10664 8660 11344 10102 8840 9663 10018 
9585 11439 8702 9886 11470 13505 13536 13869 13924 
8159 10999 6623 285 10684 4084 4128 5867 2338 
4923 992 4536 2215 183 1841 1091 3063 151 
1847 1068 1735 815 1073 1071 40 3455 3447 
2556 3023 4717 1651 1900 501 1030 4530 3389 
957 2074 687 4998 2179 1448 473 4612 1130 
1479 3753 3986 2387 2379 4960 1318 6317 892 
195 4640 6511 6369 3946 4011 5627 3674 2723 
4885 5095 2638 6321 5599 2795 2827 7809 8053 
2681 3789 7720 3788 7595 7844 5256 7975 7761 
6813 4133 7896 4156 7885 5832 5936 9183 9375 
9386 1918 3990 394 233 6059 4252 5402 9251 
9374 9473 6769 5983 9083 6584 7057 5744 9208 
9234 4450 6610 6846 8096 10811 10828 4244 7114 
2756 6830 6988 10794 9563 8405 10829 9498 9318 
9737 7144 4212 9755 9675 8477 10049 9807 7481 
12522 8527 10530 11049 9834 8972 8535 12364 8917 
11412 8875 5950 8783 7310 11627 12146 8978 12152 
7379 8688 8216 9990 9930 10324 12938 4353 9505 
10865 6058 8378 76 337 6196 1950 3222 118 
3146 1729 4618 2328 955 1317 2557 4685 4785 
1185 2731 3308 260 3195 6114 2120 1111 4744 
6066 305 2796 7808 4394 5483 7669 7939 9055 
9383 4410 744 8001 3779 5609 6635 9561 9572 
4366 6776 6338 8140 10928 9859 9630 12085 10549 
12119 10104 8864 11048 12178 12106 14051 14058 14073 
531 6083 1603 1945 4712 2031 70 965 3113 
39 283 1628 1713 1864 2320 3469 2133 4630 
4814 5011 1575 1076 1056 1629 3525 3196 2408 
1477 4967 4725 5069 3898 3773 5309 1136 3960 
4884 1975 1174 5405 6304 6339 1314 6052 2720 
5387 3644 2823 1307 2746 2990 6269 7513 2011 
3044 4780 6540 3416 6553 5524 3793 7573 6404 
7694 5188 4384 8467 4325 7763 6711 9152 3889 
116 5299 5245 3849 5965 6885 9097 9447 5875 
5708 9131 6849 7047 8214 7399 5688 5701 6613 
10623 4465 7952 1310 5900 6686 5636 8319 10904 
5972 8110 8597 5715 9653 9644 8514 10030 8633 
12196 12207 12557 5642 10936 6616 4311 7747 8258 
5913 10096 12159 10334 8543 9863 8822 8753 8979 
8814 11213 9416 12306 4664 4428 2762 567 5025 
1971 3382 2345 2115 2093 1927 4827 625 702 
1537 3133 1972 1557 1705 660 704 3126 1534 
197 1901 1757 1123 1912 1576 3248 936 894 
4537 4844 4846 4905 1572 55 3268 2607 921 
144 193 1077 2182 772 5072 3575 4900 3837 
2493 2532 3740 6198 6266 6400 3521 4863 369 
2395 5068 2830 4557 3655 6115 2884 4023 3939 
5594 6371 3589 7624 8067 2768 7714 4435 3899 
6311 5446 5624 4914 5204 9002 2491 6004 7783 
7871 7646 7528 6869 9495 6211 8577 7603 8087 
8557 9875 3583 1992 748 2469 9074 10965 6104 
8091 8605 10830 10920 6759 9130 8486 8567 5921 
8073 8537 12154 12566 662 3734 10919 7196 8205 
8902 10815 9672 12217 12222 5780 9753 7411 12383 
13046 10225 8834 11549 13597 3367 4688 6710 10557 
8381 9313 3751 6151 1784 3879 1458 6388 5349 
1612 1994 3215 302 1689 370 1744 1117 877 
1697 1806 3178 1671 2146 4736 110 623 2136 
3074 3027 2129 2385 1295 1336 3620 3243 36 
220 4908 6385 6320 410 3848 6435 4043 6356 
5255 2995 7712 4224 8048 9203 6256 1487 9458 
4326 9297 5931 9135 9086 10749 10746 10923 9768 
8572 2643 4444 5323 12354 1132 12221 12304 12444 
8904 7192 9987 9856 2020 3385 7831 330 5229 
530 6110 6062 9336 10569 10582 8160 10628 47 
1541 5781 3713 5212 5413 7655 4918 918 4704 
8162 533 1937 4683 3198 1089 6212 3138 2357 
6073 2355 6662 5360 2711 7936 9488 10 2443 
3442 3047 1057 645 165 58 1066 928 1581 
6215 3362 2109 6278 4107 4764 3838 7905 4993 
1632 7651 2819 7852 5562 4208 9042 5957 8570 
5784 9198 5899 5807 7502 10705 10886 6991 9176 
8526 8326 8166 9020 10615 9647 10687 12216 11087 
10734 8708 11269 8956 4230 10346 13669 13860 13927 
13946 7989 4493 9255 9522 2059 2444 6185 6411 
3962 6912 7011 2003 3874 6665 4363 9060 9523 
1126 7590 9518 7536 6598 6406 2601 6158 4021 
7660 8061 4211 9054 9321 3664 973 972 3417 
4969 3860 1663 3554 3494 550 1139 3425 693 
1163 4635 6499 4803 5160 3901 7605 7891 1578 
5098 5203 7717 7916 4787 3237 7894 490 3295 
2023 6324 3792 5394 3662 7818 2874 2718 5092 
5200 5445 5557 4355 6574 5436 5122 5128 4318 
5926 9311 9358 8308 7820 5759 7580 9270 6676 
10633 10748 7716 10932 5989 7239 7229 8332 10501 
10047 4456 1490 6095 8588 10924 9984 11228 8779 
12007 12370 12392 11148 12283 8815 8659 11387 11194 
9717 8337 12147 12008 12512 11117 9627 11491 9853 
10305 8741 8983 12954 11612 13838 13920 7027 399 
7355 6248 7986 3919 6477 6637 239 3981 8274 
6927 9787 6922 5864 10888 5265 1456 7589 7715 
9388 2422 2875 1767 4073 3344 2631 974 4848 
252 3326 346 657 2032 3623 2307 1266 1859 
664 1441 505 1153 4972 2249 1736 2950 6184 
5 1258 2258 1055 6344 5550 6461 6359 7742 
7770 7979 7745 434 752 604 2652 6162 7924 
4496 5260 7842 6996 6857 3906 2254 4488 4271 
9222 2217 2690 4518 2561 4286 4476 5689 5410 
5219 6863 8398 5935 7670 5804 7135 7193 10860 
10893 10573 3609 7988 10566 10644 5566 7141 7298 
10796 7465 9389 10672 7492 6586 10765 2842 9782 
9916 8808 12052 12181 12550 5956 5826 7385 11465 
5922 12371 12547 8581 10795 12003 10760 11271 8370 
7077 9588 10692 8823 8158 10071 10908 9698 12440 
12373 11411 8675 7418 9911 11420 10370 7539 5121 
4899 4849 2735 5595 9284 9408 2929 7729 7696 
5605 9293 6601 3767 8013 8590 549 1344 7778 
382 680 2160 6355 9329 9381 5261 674 2227 
4653 762 5009 2282 6405 3353 5376 1540 4912 
4758 315 64 489 113 838 68 2566 620 
1168 2102 1152 1121 758 4099 3611 6503 6322 
2957 5590 7711 5285 4233 5836 5358 7921 5020 
1520 3904 3796 4400 5377 9009 7798 2116 5528 
9092 6864 8066 8155 8156 8422 8187 5243 7370 
6921 7368 5868 8227 10661 10729 10784 10832 10899 
11002 1492 2641 7002 8257 5801 6620 7155 5679 
8262 11041 5683 10850 8273 11019 5974 7334 8444 
12290 10015 6653 10074 8482 9599 12553 8499 8854 
7134 11405 12331 12516 11197 5811 8737 11304 8790 
9747 11580 11135 11178 9799 13874 137 12190 633 
7182 8495 7329 8051 2223 6555 5124 332 6437 