# vtk DataFile Version 4.0
Generated by LIGGGHTS
ASCII
DATASET POLYDATA
POINTS 11995 float
-0.136129 -0.261709 -0.994915 -0.157847 -0.245271 -0.995038 -0.128915 -0.251769 -0.995004 
-0.127144 -0.266025 -0.99495 -0.141323 -0.253204 -0.99502 -0.168142 -0.241776 -0.995056 
-0.145848 -0.244298 -0.995016 -0.156698 -0.249584 -0.986142 -0.144361 -0.248123 -0.985478 
-0.15261 -0.24693 -0.977469 -0.151325 -0.252837 -0.99502 -0.132566 -0.258093 -0.980759 
-0.160561 -0.247466 -0.971516 -0.163995 -0.245268 -0.980935 -0.145994 -0.254097 -0.975706 
-0.168019 -0.241982 -0.967788 -0.123256 -0.244573 -0.97224 -0.122726 -0.268254 -0.986281 
-0.122447 -0.268305 -0.976261 -0.139659 -0.244498 -0.974037 -0.121193 -0.257957 -0.964647 
-0.120245 -0.246285 -0.948113 -0.133659 -0.248448 -0.966647 -0.140592 -0.255443 -0.95784 
-0.152513 -0.252564 -0.968384 -0.122614 -0.252223 -0.939283 -0.121162 -0.240085 -0.956449 
-0.119608 -0.244184 -0.995021 -0.114051 -0.272096 -0.972081 -0.109031 -0.248337 -0.971114 
-0.11801 -0.270089 -0.995029 -0.0936057 -0.270871 -0.978875 -0.0868842 -0.281927 -0.986669 
-0.0818942 -0.262584 -0.995044 -0.073718 -0.249458 -0.995043 -0.0952209 -0.259848 -0.988799 
-0.0716902 -0.286147 -0.995018 -0.110073 -0.263982 -0.994952 -0.082069 -0.240715 -0.995011 
-0.0814305 -0.282255 -0.995025 -0.079823 -0.274901 -0.987232 -0.104586 -0.271219 -0.986111 
-0.0921004 -0.280205 -0.995011 -0.0609439 -0.262439 -0.987768 -0.0767746 -0.284694 -0.98654 
-0.0989528 -0.272949 -0.995029 -0.108932 -0.274177 -0.994568 -0.0642125 -0.279042 -0.995012 
-0.0974775 -0.278381 -0.986785 -0.100145 -0.243774 -0.986992 -0.0736539 -0.275778 -0.995028 
-0.0652774 -0.267797 -0.995057 -0.103274 -0.248873 -0.995036 -0.0936131 -0.246325 -0.995016 
-0.0838946 -0.252186 -0.995026 -0.061142 -0.288556 -0.995009 -0.0671589 -0.273524 -0.987173 
-0.0861082 -0.271729 -0.995004 -0.113643 -0.253382 -0.98484 -0.0666087 -0.284088 -0.986679 
-0.0868315 -0.246718 -0.987179 -0.0742576 -0.267115 -0.990016 -0.0927764 -0.241541 -0.980445 
-0.0777183 -0.256438 -0.988461 -0.0705207 -0.259377 -0.995063 -0.0609364 -0.255198 -0.994998 
-0.0601957 -0.243698 -0.981203 -0.0671979 -0.278057 -0.97239 -0.076061 -0.243928 -0.987069 
-0.102664 -0.262455 -0.970456 -0.114046 -0.272084 -0.983035 -0.0680914 -0.255071 -0.986545 
-0.0821867 -0.26561 -0.984121 -0.0841109 -0.273776 -0.978284 -0.102167 -0.276587 -0.978078 
-0.0659347 -0.267845 -0.977648 -0.064453 -0.245862 -0.995202 -0.0636903 -0.288077 -0.978012 
-0.10959 -0.240943 -0.995016 -0.0918826 -0.253239 -0.975702 -0.0719411 -0.26721 -0.966866 
-0.073393 -0.274985 -0.97954 -0.0915083 -0.280493 -0.977492 -0.0744143 -0.248983 -0.976443 
-0.0729768 -0.25822 -0.972155 -0.0824597 -0.28325 -0.974274 -0.0645448 -0.257608 -0.977465 
-0.073056 -0.284739 -0.977285 -0.0732616 -0.261895 -0.981424 -0.0784074 -0.266606 -0.974349 
-0.0904843 -0.273378 -0.969762 -0.0872349 -0.28184 -0.965613 -0.102538 -0.241093 -0.97322 
-0.0774001 -0.275638 -0.970167 -0.0877124 -0.263366 -0.975636 -0.0833687 -0.255699 -0.980293 
-0.100572 -0.249332 -0.978693 -0.0671027 -0.250282 -0.953618 -0.105209 -0.240584 -0.963603 
-0.0839639 -0.255558 -0.969844 -0.100169 -0.255926 -0.945664 -0.0863365 -0.246561 -0.965491 
-0.0991542 -0.272461 -0.954807 -0.0645281 -0.287872 -0.967987 -0.0621706 -0.272706 -0.964317 
-0.108134 -0.274472 -0.95953 -0.0849324 -0.264954 -0.966058 -0.073194 -0.263838 -0.956637 
-0.0962241 -0.246518 -0.967529 -0.0660436 -0.258592 -0.964989 -0.0838576 -0.245425 -0.976826 
-0.0845818 -0.273461 -0.960911 -0.0957744 -0.249809 -0.957726 -0.0900319 -0.249406 -0.947381 
-0.0824977 -0.256514 -0.958117 -0.0863701 -0.28214 -0.944983 -0.115208 -0.261362 -0.951811 
-0.0998813 -0.277084 -0.967595 -0.0695216 -0.274076 -0.957729 -0.0742696 -0.284971 -0.96735 
-0.0693153 -0.245567 -0.968361 -0.0675587 -0.259647 -0.947404 -0.0551403 -0.28973 -0.97137 
-0.0555452 -0.2618 -0.979318 -0.0260817 -0.285284 -0.987547 -0.0434532 -0.280446 -0.995015 
-0.0533857 -0.282188 -0.995023 -0.0383722 -0.292179 -0.995011 -0.0257338 -0.293876 -0.995019 
-0.0146313 -0.294652 -0.99493 -0.0076438 -0.262556 -0.995057 -0.0274256 -0.260989 -0.995034 
-0.0375341 -0.261677 -0.995057 -0.0463178 -0.26954 -0.995014 -0.00165327 -0.262621 -0.986237 
-0.0376507 -0.266091 -0.986025 -0.0362691 -0.271879 -0.995034 -0.00207692 -0.2786 -0.995006 
-0.0185633 -0.255979 -0.995026 -0.00753322 -0.287299 -0.995001 -0.0336174 -0.282984 -0.995005 
-0.0565055 -0.272695 -0.994963 -0.0486441 -0.290988 -0.995054 -0.0132526 -0.283291 -0.987858 
-0.0167958 -0.266504 -0.995036 -0.0195883 -0.286008 -0.995035 -0.0499789 -0.253034 -0.99507 
-0.0203099 -0.293834 -0.986644 -0.0485782 -0.264389 -0.986743 -0.0540113 -0.262598 -0.995012 
-0.0307007 -0.275222 -0.985741 -0.030376 -0.251329 -0.995039 -0.0401355 -0.249256 -0.994984 
-0.0207378 -0.277086 -0.985405 -0.042038 -0.256343 -0.987996 -0.00653736 -0.248512 -0.990051 
-0.0541862 -0.276796 -0.980556 -0.0448409 -0.286418 -0.987104 -0.00756373 -0.294894 -0.98788 
-0.0269155 -0.275406 -0.995039 -0.0168039 -0.276466 -0.994888 -0.0253402 -0.288889 -0.973024 
-0.0321406 -0.293212 -0.987275 -0.024334 -0.268149 -0.988758 -0.0392686 -0.292245 -0.980306 
-0.019287 -0.243731 -0.983059 -0.0278034 -0.242715 -0.988176 -0.00877002 -0.271733 -0.991408 
-0.0406237 -0.275593 -0.986773 -0.000356672 -0.272513 -0.985975 -0.035516 -0.283923 -0.984737 
-0.0099386 -0.27808 -0.980032 -0.0140605 -0.25151 -0.977269 -0.021534 -0.246469 -0.995001 
-0.0148347 -0.260603 -0.986991 -0.00500631 -0.286438 -0.983252 -0.00912417 -0.267864 -0.982237 
-0.0377737 -0.243603 -0.987074 -0.0279033 -0.255881 -0.980979 -0.0515716 -0.25501 -0.985515 
-0.0375802 -0.272003 -0.977935 -0.0045022 -0.245806 -0.974354 -0.000610706 -0.294957 -0.995036 
-0.00718513 -0.258534 -0.979033 -0.0478022 -0.245198 -0.989327 -0.0161706 -0.281211 -0.962917 
-0.0486372 -0.265036 -0.970785 -0.0132156 -0.294713 -0.979667 -0.0258915 -0.274462 -0.977003 
-0.0366556 -0.244337 -0.976931 -0.0291476 -0.267421 -0.970728 -0.0453821 -0.259137 -0.978348 
-0.0190343 -0.268011 -0.980386 -0.0487913 -0.245045 -0.971182 -0.00921165 -0.252032 -0.968182 
-0.0443134 -0.274613 -0.969219 -0.0440875 -0.249594 -0.980981 -0.0440136 -0.291596 -0.970613 
-0.0492158 -0.290897 -0.979358 -0.0403565 -0.282217 -0.97594 -0.0106071 -0.291584 -0.97055 
-0.0384761 -0.262181 -0.971674 -0.011593 -0.266867 -0.967501 -0.0273245 -0.241466 -0.974085 
-0.0559638 -0.263624 -0.961201 -0.0527404 -0.254183 -0.973357 -0.00023381 -0.255137 -0.972722 
-0.00204041 -0.287617 -0.973776 -0.0165241 -0.243003 -0.972636 -0.0378256 -0.2833 -0.966394 
-0.0588093 -0.265969 -0.970868 -0.0528992 -0.250691 -0.963759 -0.0419504 -0.24958 -0.965504 
-0.00445281 -0.28155 -0.961614 -0.0505634 -0.28245 -0.95797 -0.0366223 -0.292554 -0.9628 
-0.00339289 -0.292189 -0.960739 -0.00957103 -0.281602 -0.970687 -0.036849 -0.275268 -0.954364 
-0.0254963 -0.275353 -0.965367 -0.0492509 -0.256604 -0.953838 -0.0255365 -0.242417 -0.961179 
-0.0569789 -0.281334 -0.965895 -0.026123 -0.266518 -0.959823 -0.00241428 -0.249247 -0.953792 
-0.033335 -0.246789 -0.951705 -0.040632 -0.267601 -0.963044 0.00086939 -0.275063 -0.968754 
0.00293075 -0.257723 -0.963921 0.0046489 -0.29495 -0.972609 0.0575941 -0.255651 -0.954826 
0.000523925 -0.278787 -0.978257 0.015348 -0.279697 -0.979027 0.00730079 -0.261539 -0.977769 
0.0182639 -0.294507 -0.991684 0.00384315 -0.269889 -0.994956 0.00906189 -0.292591 -0.995043 
0.00772082 -0.280587 -0.995078 0.0271894 -0.288621 -0.981031 0.0241571 -0.273343 -0.995071 
0.0389288 -0.258138 -0.995064 0.0399624 -0.265809 -0.988662 0.0416508 -0.283043 -0.994967 
0.0316855 -0.284579 -0.994945 0.0141183 -0.272638 -0.995009 0.011413 -0.262968 -0.995036 
0.00812749 -0.277732 -0.985604 0.0318096 -0.265055 -0.995113 0.0437552 -0.272535 -0.995022 
0.0477199 -0.290986 -0.995018 0.0518752 -0.280013 -0.995017 0.0376548 -0.279019 -0.986783 
0.037699 -0.292525 -0.994959 0.0340492 -0.27478 -0.995047 0.0586459 -0.26082 -0.995009 
0.00747472 -0.251136 -0.995047 0.00198487 -0.259891 -0.995058 0.0273365 -0.261533 -0.987049 
0.0481425 -0.263493 -0.994982 0.0201218 -0.268907 -0.98495 0.0273727 -0.255613 -0.995047 
0.0212598 -0.285188 -0.995014 0.0286553 -0.274549 -0.986242 0.00506179 -0.249575 -0.980618 
0.0277631 -0.293775 -0.995003 0.0214952 -0.263663 -0.994995 0.0575313 -0.288667 -0.994994 
0.0564421 -0.289328 -0.984781 0.0481511 -0.279916 -0.977611 0.0342173 -0.250358 -0.990136 
0.0427402 -0.248886 -0.995098 0.00705809 -0.286343 -0.980712 0.0152231 -0.244345 -0.995031 
0.0170903 -0.254094 -0.994986 0.0237502 -0.252012 -0.986482 0.00953548 -0.294876 -0.985368 
0.0472393 -0.274106 -0.985816 0.0555691 -0.27041 -0.995016 0.0134958 -0.286355 -0.9887 
0.0512972 -0.254011 -0.995027 0.041029 -0.292162 -0.985423 0.0068984 -0.2572 -0.986774 
0.0190622 -0.278218 -0.988116 0.00261574 -0.287218 -0.98961 0.0514544 -0.243168 -0.994984 
0.035781 -0.241837 -0.995075 0.0562793 -0.251065 -0.986448 0.0165054 -0.259987 -0.987061 
0.0386514 -0.241916 -0.985589 0.0401965 -0.285466 -0.974284 0.00904237 -0.267859 -0.986604 
0.0304403 -0.246383 -0.981667 0.0332702 -0.267169 -0.981342 0.000219593 -0.294836 -0.981646 
0.0470747 -0.284268 -0.986571 0.0432571 -0.27096 -0.977212 0.0454657 -0.257274 -0.987654 
0.0518437 -0.26498 -0.985743 0.046857 -0.247527 -0.986204 0.0351281 -0.276735 -0.976646 
0.00757253 -0.243754 -0.988334 0.014069 -0.250492 -0.984747 0.0261342 -0.245439 -0.994911 
0.0536876 -0.242763 -0.980857 0.0405455 -0.265237 -0.965135 0.0140362 -0.294528 -0.976465 
0.0506253 -0.257274 -0.979234 0.0135674 -0.259343 -0.955176 0.0363873 -0.257624 -0.983551 
0.0497912 -0.288026 -0.964959 0.055764 -0.27934 -0.98584 0.0487131 -0.290036 -0.977626 
0.0223915 -0.260119 -0.97307 0.054201 -0.272075 -0.978958 0.0416136 -0.247664 -0.971792 
0.0414062 -0.272176 -0.937606 0.0168865 -0.273715 -0.965669 0.0115676 -0.249754 -0.973024 
0.0122308 -0.270245 -0.977347 0.0147956 -0.288987 -0.968189 0.0543741 -0.253446 -0.966974 
[...]
POINT_DATA 11995
FIELD FieldData 7
id 1 11995 int
196 202 880 4791 6203 1778 5015 3769 2447 
6131 2528 5080 1428 2889 5461 6657 4417 3132 
1832 3980 9008 9509 7063 8492 8311 8553 10892 
818 4263 5272 572 265 294 536 1777 1514 
2027 3106 454 528 1858 773 740 1555 1027 
3730 1086 3321 4708 4790 115 3142 1022 3453 
1981 2250 4598 1452 585 3933 2434 1491 1234 
6332 6336 3422 4513 4071 4645 4508 4806 3812 
3637 3766 5115 7900 322 5045 3352 6219 7586 
2815 5330 7879 3918 7726 4287 4290 4313 4164 
5476 7019 4402 5788 9064 9231 9268 7565 2769 
6691 7545 6782 5792 4457 8143 5852 5869 8247 
6839 5147 5763 8253 6714 4361 4082 8314 7323 
10708 10771 10912 10979 7245 5301 1333 3279 429 
1550 562 395 1828 122 1654 1790 3277 364 
190 948 1044 331 3134 1553 1100 3120 3276 
930 2312 3082 4684 4729 4941 2010 350 155 
688 4939 3029 2090 3364 2259 900 3698 1145 
4697 4837 2195 2350 2700 2784 6224 4581 2060 
4959 4891 4862 2203 2474 2134 5271 2639 6415 
4452 7912 946 5441 925 5059 6548 6507 4419 
6445 2669 7762 4262 5153 4319 6690 4236 4238 
4370 5711 4180 6790 4140 8176 4160 9422 3357 
4559 2244 5477 8428 5539 8291 5542 4279 6622 
9109 6804 8325 9400 5673 5840 5710 7431 7133 
7387 10894 6701 5927 2220 1113 669 6403 6536 
3411 2429 1641 35 17 131 328 1717 1599 
1890 1788 608 2189 3230 3408 477 3403 759 
3069 1903 3203 3419 2465 1128 3285 1082 2460 
911 2264 683 4860 5060 37 172 706 1571 
1577 1595 2021 797 4677 4006 2255 4571 4968 
1187 3365 4562 1215 2187 4879 2548 2199 3952 
3738 5341 2300 2578 4847 1365 6126 6358 6517 
3735 4127 101 212 2848 2597 3944 4032 1702 
2299 4767 5530 2873 6466 3782 5091 5404 7507 
3726 5237 2899 5263 4305 7748 7922 2758 6847 
5173 5994 5472 5747 5666 5821 9077 9394 9468 
5355 5367 3846 5078 9538 2849 5379 2901 8006 
6743 4378 9103 9457 9773 4249 6023 9429 10929 
11034 8012 2748 5227 455 3982 3000 2913 1997 
4631 3916 3547 1585 263 1668 127 3041 678 
2594 34 1506 3413 1081 588 1020 2461 4793 
25 2041 3224 2016 4748 1409 1244 2409 1498 
3396 2611 1489 2114 1374 4087 6068 6091 6132 
6414 2552 2979 4097 6124 4768 3953 4028 2674 
5137 2786 2463 2214 2168 3775 3941 6071 3661 
6377 4615 7855 8063 4372 6545 4214 7640 7985 
7575 7954 7631 5499 6854 9122 7574 5919 7656 
6612 8293 9469 9501 5640 9243 8113 9037 8256 
8324 6681 10690 7308 1886 7913 6963 2676 230 
1794 561 788 3275 3538 4662 1518 551 867 
4778 3384 1106 2267 1454 1355 4619 532 1634 
709 6516 6226 2260 4870 7602 6491 6482 7706 
6778 5130 8504 6852 5498 9066 5809 10817 11022 
486 2068 343 1910 929 3440 3566 2050 790 
1866 1730 1926 842 735 830 2202 1173 3181 
436 264 4946 2045 4646 2104 2239 3832 1363 
1271 2081 3632 3742 6143 6481 135 2123 985 
1467 1395 885 4627 2630 2918 3886 1375 6194 
1203 3759 3966 1342 6086 3820 7584 7898 2613 
3978 5416 5505 8071 3647 9192 9224 9322 8 
1453 7967 3603 4445 5250 6145 7775 2725 7203 
10554 10707 1196 4404 4074 1420 3009 615 987 
3325 1807 1530 3297 206 1814 108 335 1672 
1677 51 850 3036 781 325 666 3014 1284 
939 1870 956 2579 4650 4792 4869 3409 912 
855 1164 1437 4878 4953 725 2319 1913 3488 
2100 589 4951 2505 4120 1361 4693 4118 4934 
6392 6469 4706 2866 3450 4061 3694 4673 6097 
6353 2719 3328 5455 2660 3875 2635 3959 5145 
2951 4434 3578 7974 8019 3884 2256 2520 4566 
7124 7661 4534 7625 7668 6768 6556 7093 4376 
5090 5660 9285 837 97 6118 2732 3680 4426 
1724 2978 5574 9106 5310 6140 8591 7749 9137 
6772 4469 2098 7837 6699 5981 8180 8453 9486 
8580 5719 7425 10646 10827 10856 10943 11003 672 
5398 7835 6905 4494 1853 2064 1202 3438 2721 
2689 1699 2537 2089 1700 3283 990 4835 1957 
1925 721 1524 3191 543 3534 4544 1533 3234 
1939 856 3032 4864 535 1623 72 1510 392 
333 1016 2225 3881 4921 3844 4783 4868 4546 
4964 2885 6197 6383 6449 832 2665 4696 4839 
3180 2419 4727 4642 3908 6007 6282 5143 7505 
7658 8059 5486 1298 2589 6121 7582 6547 3388 
7947 6459 6581 4390 5488 9239 9342 9567 6559 
5503 9256 7501 5348 5668 6930 5975 8582 5760 
9370 8610 5538 8296 7058 10577 10629 10863 10975 
164 851 6640 6833 2167 2764 5253 4248 3570 
4715 2596 2373 287 1617 495 1693 646 1723 
3456 2132 3332 2522 4541 2067 802 459 2432 
2448 4851 685 1516 2529 1753 4504 4505 5007 
1253 2546 2508 1261 1210 1021 2096 2283 2697 
6253 6485 6502 2524 4593 2485 1265 426 1588 
2999 2347 2240 5464 1328 5357 7893 7897 4611 
1301 3670 4480 4523 6419 5190 4756 2804 6247 
4134 2502 4278 4051 5334 5236 5224 4143 4438 
3826 9128 9291 5246 7509 5422 6393 275 6561 
2148 6063 7735 4486 9369 7128 5773 9460 5658 
9385 6819 8363 10630 10647 10675 10834 10970 3066 
2715 6848 3108 648 1272 4936 2753 1916 26 
78 962 1880 618 3065 1664 408 991 786 
858 622 873 577 1124 261 583 2329 1732 
1718 1876 4520 691 3378 4873 2457 4621 4940 
4983 4527 1214 3866 5419 1483 6271 6454 128 
1619 1118 373 1716 3068 779 5565 6228 6077 
4077 3164 5294 7827 7600 2934 5165 7980 5667 
6937 4194 9320 9528 9057 6201 7526 6978 6577 
9445 4346 5769 2906 9363 5767 6580 8114 6816 
5884 10026 9790 6971 10545 10638 10639 10711 10753 
10823 2162 6080 8010 4448 4510 1075 3165 7125 
5520 942 3498 3669 2859 2336 3835 1800 31 
423 1660 266 107 3079 512 3257 548 463 
2403 3004 644 886 4507 1780 2073 292 182 
1990 4815 1252 4038 4794 2138 2268 1447 624 
3882 4651 2541 2622 2075 2806 3991 6029 3784 
2386 6265 6484 4004 3642 2824 1484 5563 2222 
3714 2828 2771 4035 6638 5378 5225 6501 4339 
7530 7583 7932 3060 4045 4754 2818 6530 4344 
5288 8029 7851 7788 7962 2927 4332 3162 1470 
4272 628 4157 5555 9470 9503 3719 8333 5535 
7101 6797 9093 8390 5682 6013 8449 6630 5923 
7591 7018 9304 5504 6829 8546 1371 9767 9833 
10547 10608 10937 10954 7006 2772 4999 5281 1179 
4710 2475 5471 1061 538 1340 2802 1938 1527 
861 3564 16 409 3342 1842 1976 1600 1983 
329 1964 3407 414 1905 1582 3296 1574 3542 
1033 1186 4880 926 5054 4587 3306 3483 3527 
2593 3546 2501 3393 4053 2535 1497 2456 4854 
2087 4597 1469 1246 865 2382 2406 2789 6017 
2826 726 1461 809 3754 4633 2835 6352 2855 
2509 6193 6313 6048 2857 3673 7637 7781 8005 
575 6259 3368 817 4003 4178 1200 7611 2994 
6147 5384 1273 6980 2200 4462 1255 5493 2989 
7059 5220 8427 2188 5485 4153 2415 7753 7568 
5944 9413 6990 5545 4369 5531 9759 6668 9491 
7216 6952 4487 6680 8081 8397 6965 6942 10980 
6119 6892 3264 2043 194 566 3307 4556 462 
163 472 347 509 1698 1946 3298 3478 3427 
3921 2398 1955 3062 309 3008 636 605 898 
540 1299 3679 1366 3746 4915 2375 2624 2427 
6164 1846 3752 3976 3818 2843 6055 2936 1324 
1099 6065 5591 4382 7097 7581 4226 6961 4897 
2304 1257 9177 6880 3667 5382 9257 9259 5631 
7704 7732 6888 507 2052 508 3258 1826 80 
1929 1763 1018 3217 888 453 3465 4944 4898 
4753 6006 159 1036 5370 2612 6034 2752 521 
5340 1610 2761 123 6202 6535 3930 9182 4427 
9417 7677 2164 9127 4429 10564 6378 6207 7665 
5063 339 2276 2966 1177 2277 33 1909 441 
1739 568 2062 515 3337 3391 3140 338 1891 
428 2040 3011 3418 658 958 1131 949 2181 
3073 952 2555 841 1774 3683 170 375 3018 
250 4866 3176 1694 4699 701 4690 3064 3114 
3202 3504 2358 3358 4730 2782 2627 4910 2221 
2353 989 2609 2346 3715 6421 2883 1911 4529 
3877 418 4930 6183 6570 6155 2693 4113 3870 
1353 1133 2973 7997 1345 4694 3932 3912 6391 
7679 4779 6173 3842 5172 4632 4000 6384 6225 
4188 9018 9307 5768 7813 3979 3778 2762 5287 
5925 3090 5400 9531 9553 5086 9416 9451 8011 
6831 9310 4220 6795 9674 5650 4691 7563 238 
3261 6412 1134 3125 1543 708 1032 402 224 
2046 458 1624 632 556 1504 3555 3046 821 
647 4667 801 389 4749 5049 1804 3957 4088 
1085 4931 5062 1316 3659 4850 67 3030 1269 
2363 4678 4721 2233 1450 5073 2257 723 2543 
5517 1462 6179 6190 6401 6496 6500 1722 1587 
6134 3035 47 1980 3510 5038 3557 3385 2510 
2887 6550 3692 2118 5343 3942 7515 1754 4970 
2088 3958 5612 7857 7831 6082 3880 6105 7983 
8057 3935 2020 4040 3630 9186 9334 9431 2165 
366 527 3751 4015 3867 2905 2919 3505 3713 
4522 5431 4389 5212 9079 9119 6032 5502 6774 
5175 1142 906 6172 3840 5543 2411 1408 293 
53 5167 3710 3781 2361 5452 4209 2608 2306 
4540 1360 2468 3220 3563 355 3085 547 3284 
843 4937 306 210 3290 3552 3151 2275 4092 
352 4976 330 3340 2511 2194 3972 1879 602 
6003 2694 6252 3588 3864 7907 7928 7973 3232 
438 4933 6541 6229 6053 4024 5450 5229 77 
4545 530 6054 4928 7847 4374 5033 5536 5089 
4471 6464 6931 1194 5616 6636 7022 7829 4495 
8008 6694 5413 9151 9228 9396 9504 8498 7655 
4918 6394 6110 918 6062 7621 4704 5126 9175 
9506 5180 9489 6977 9080 9226 4218 5338 3926 
6793 7864 9190 9349 9017 5637 5908 8162 9493 
9336 8246 9139 9554 6953 6707 5753 8392 4251 
8409 6928 10569 10582 10613 10873 10946 4080 9279 
4351 9063 4811 518 484 810 3131 6408 546 
451 6527 1274 811 1114 4763 3252 522 695 
1869 4623 2610 4703 3457 3582 2569 5030 5046 
734 1197 3672 5354 4089 5157 6191 4111 3707 
3100 1438 6569 6146 3803 6015 4068 5277 7642 
8025 2932 3514 882 545 3627 1760 6376 4800 
5596 5583 4328 1373 6204 4268 6351 5346 6470 
7986 7777 6127 4950 6749 5432 6902 5495 5149 
4472 4098 6682 9125 9159 9219 9266 7746 1218 
2059 4019 4481 4185 6882 9344 9537 8389 4398 
7508 4150 5814 4243 7092 9165 6941 8598 5726 
9540 7437 8121 10622 10685 10736 10826 11001 4894 
4453 4829 6257 277 3024 6734 5085 1711 6008 
3975 1670 4550 1885 6199 3550 3107 448 792 
2066 976 977 2577 6 2433 4554 4617 634 
4676 3919 2421 4517 3810 1369 3580 6156 6554 
3 1151 2449 4988 6161 6116 6281 6348 2335 
5179 4119 5533 2670 5474 3495 3022 2033 4801 
3888 2858 4473 5201 4441 5576 8354 8300 7559 
6896 8310 5259 9519 6477 6637 3621 8352 6587 
8222 6715 8171 7048 7682 8080 6796 9437 8201 
8431 10877 10897 10948 11008 4981 3423 4871 5619 
6724 9411 2787 5728 4364 2655 4276 6648 3802 
2186 2055 4762 313 502 3095 1829 603 1590 
141 401 358 1962 995 3449 256 476 2044 
840 1849 3474 655 3443 3204 864 2430 4543 
3059 653 3055 4515 1143 1341 2216 1256 4025 
917 1277 812 2912 1182 6298 6417 286 3774 
4072 4774 2941 4830 4659 2028 6038 4116 2952 
2708 3678 4449 7532 7572 4722 5529 5526 1339 
6844 3591 4044 4258 2766 5516 6973 6966 9058 
2832 1812 6168 2803 8037 6924 9144 9550 2779 
7539 9112 9169 7755 9403 8532 8260 1319 5761 
9142 6641 8518 5754 6889 7086 10678 10985 11006 
2278 3689 4961 4737 6152 7653 4810 1347 785 
633 1264 3951 1359 4979 1836 1696 1822 2445 
1060 1531 1297 5056 379 1852 2019 1956 760 
1007 3529 1932 60 677 746 1639 1011 3401 
1221 4555 4789 3251 909 3098 967 82 2341 
281 1865 3323 4516 5058 2130 4788 3929 1425 
2237 4049 6416 6430 3856 3078 4731 1161 1494 
3965 3681 2286 3507 5607 5439 5424 6413 2685 
5623 7511 7699 7878 845 2671 1228 3890 719 
3859 6020 3762 3761 4322 7865 4144 4291 7106 
4132 7800 7867 5509 6979 5429 7127 9487 5790 
285 6646 764 9500 9214 7056 5558 4320 6767 
4315 7182 6886 4709 8495 8120 6788 9508 6623 
5887 6625 9462 5146 7329 10655 10684 10831 4084 
4128 5867 3446 2338 4923 992 4536 2215 183 
1841 1091 3063 151 1847 1068 1735 815 1073 
1071 40 3455 3447 2556 3023 4717 1651 1900 
501 1030 4530 3389 957 2074 687 4998 2179 
1448 473 4612 1130 1479 3753 3986 2387 2379 
4960 1318 6317 892 195 4640 6511 6369 3946 
4011 5627 3674 2723 4885 5095 2638 6321 5599 
2795 2827 7809 8053 2681 3789 7720 3788 7595 
7844 5256 7975 7761 6813 4133 7896 4156 7885 
5832 5936 9183 9209 9375 9386 1918 3990 6058 
394 233 6059 4252 5402 9251 9374 9473 6769 
5983 9083 6920 6584 4353 7057 5744 8378 9208 
6901 9234 4450 8506 8191 6610 6846 8096 10811 
10828 10953 10959 76 337 6196 1950 3222 118 
3146 1729 4618 2328 955 1317 2557 4685 4785 
1185 2731 3308 260 3195 6114 2120 1111 4744 
6066 305 2796 7808 4394 5483 7669 7939 9055 
9383 4410 744 8001 3779 5609 6635 9561 9572 
9542 9505 531 6083 1603 1945 4712 2031 70 
965 3113 39 283 1628 1713 1864 2320 3469 
2133 4630 4814 5011 1575 1076 1056 1629 3525 
3196 2408 1477 4967 4725 5069 3898 3773 5309 
1136 3960 4884 1975 1174 5405 6304 6339 1314 
6052 2720 5387 3644 2823 1307 2746 2990 6269 
7513 2011 3044 4780 6540 3416 6553 5524 3793 
2963 7573 6404 7694 5188 4384 8467 4325 7763 
6711 9152 3889 116 5299 4362 5245 3849 7993 
5965 6885 9097 9447 6616 5875 5708 9131 6849 
7047 8214 7399 5688 5701 6613 10623 7836 567 
5131 416 4664 5025 1971 3382 2345 2115 2093 
1927 4827 625 702 1537 3133 1972 1557 1705 
660 704 3126 1534 197 1901 1757 1123 1912 
1576 3248 936 894 4537 4844 4846 4905 1572 
55 3268 2607 921 144 193 1077 2182 772 
5072 3575 4900 3837 2493 2532 3740 6198 6266 
6400 3521 4863 662 369 2395 5068 2830 4557 
3655 6115 2884 4023 3939 5594 6371 3589 7624 
8067 1598 2166 2768 4465 7714 4435 3899 6311 
5446 5624 4914 5204 9002 2491 6004 7783 7871 
7952 7646 7528 6869 9495 6211 8577 1310 7603 
8087 8557 5900 9875 3583 4628 10557 3367 6151 
2643 1784 3879 1458 6388 5349 533 1612 1994 
3215 3390 302 1992 1689 370 1744 1117 877 
1697 1806 3178 1671 1541 3426 2146 4736 110 
623 587 748 1937 2469 2136 3074 3027 2129 
2385 1295 1336 4688 3620 4683 3198 1089 6212 
3243 36 3138 220 4908 2357 6385 770 1455 
6320 6073 410 3848 6435 4043 2650 3535 2355 
6356 162 7909 5255 2995 6005 7109 4444 7712 
6662 4433 4224 5360 8048 4229 8381 6710 9203 
9482 2711 7936 5490 9138 6256 511 6182 6410 
6634 5781 9488 1487 9458 4326 9297 5653 5931 
9135 5323 9074 9313 9086 5985 10749 7989 6746 
10 2343 2443 2444 3442 3047 1057 645 165 
58 1066 3825 928 1581 6215 3362 2109 6067 
6278 4107 4764 3838 6185 7905 6411 3962 4993 
4874 5444 1632 3477 1079 3686 2686 7651 8070 
6912 7011 7709 2003 2819 5093 3874 7701 6665 
7852 4363 5562 4208 4493 9042 9060 9523 9255 
849 1126 2082 954 4728 6563 6436 3843 3314 
6125 4415 7590 5497 9518 5957 3675 7707 8570 
9020 5784 7536 6598 9198 5899 5807 7336 8581 
9444 7502 8160 10628 10687 10705 10886 7027 4191 
6406 2601 4995 6158 4021 7660 8061 4211 9054 
9321 3664 973 972 3417 4969 3860 1663 3554 
3494 550 1139 3425 693 1163 4635 6499 4803 
5160 3901 7605 7891 1578 1490 239 5098 5203 
7717 7916 4787 3237 7894 490 3295 2023 3981 
3858 6324 3792 5394 3662 7818 6095 2874 6594 
2718 5092 5200 7838 5445 5557 4355 6574 7121 
5436 5122 5128 4318 5399 5926 9311 9358 6716 
9286 5226 217 5684 3058 6407 5193 3821 5453 
4213 8630 8308 9059 7820 9108 6248 5759 7580 
9270 7697 8274 5968 6927 9522 5945 6725 6676 
4345 9787 6922 5864 10633 10748 10888 5265 5121 
1456 2904 5511 4899 7589 7715 9388 2422 2875 
1767 4073 3344 2631 974 4848 252 3326 346 
657 2032 3623 2307 1266 1859 664 1441 505 
1153 4972 2249 1736 2950 6184 5 1258 399 
2258 1055 6344 4102 5550 6461 6359 7742 7770 
7979 4849 7745 434 752 604 2652 6162 7924 
2735 4496 5260 7842 6996 6857 5595 3906 2254 
4488 4271 9222 9284 9408 9412 2217 2690 4518 
2929 2561 5621 4286 7729 7696 4476 5689 5410 
4490 5605 5219 6863 8398 5935 7670 5804 8528 
9293 7126 6601 7135 7193 10860 10893 3767 8013 
8590 549 1344 7778 382 680 2160 6355 9329 
9381 5261 674 2227 4653 762 5009 2282 6405 
3353 5376 1540 4912 4758 315 64 489 137 
113 838 68 2566 620 1168 2102 1152 1121 
758 4099 3611 6503 6322 2957 5590 7711 5285 
4233 5836 5358 7921 5020 1520 3904 3796 4400 
5377 9009 7798 2116 5528 9092 6864 8066 8155 
8156 8422 8187 5243 7370 6822 6921 7368 5868 
8227 10661 10729 10784 10832 10899 11002 8051 2223 
6555 5124 332 6437 3607 2954 525 6135 1012 
1758 609 2372 766 582 1492 5244 2641 1239 
891 1064 2290 2247 1562 48 1721 3077 1608 
5037 1558 1647 1523 471 32 2026 524 1935 
218 3158 3560 3400 1795 3122 3097 3087 66 
857 3489 138 3091 1415 4083 3121 2477 3695 
6310 3665 3955 4620 2103 2794 6325 2399 4408 
1442 4046 2981 2500 3599 3624 2744 2869 5359 
7796 1419 1160 3568 198 4026 1384 4017 4010 
5427 7002 5136 4001 2702 7566 8033 2955 7744 
7785 3787 5551 8049 5304 2896 9227 4467 2172 
291 478 778 6380 1138 4718 9380 267 9558 
7081 6689 5860 9560 8282 4393 5114 7738 9455 
10028 6862 7346 10918 10972 7607 4403 1872 4989 
3760 3676 6565 2332 642 1840 4062 3645 4895 
2296 2602 6300 411 1522 2295 1968 3110 311 
251 378 3157 1584 3444 4512 4907 1881 703 
5032 2211 757 2691 3159 19 4679 3817 2175 
5156 6049 188 5361 3592 6268 3938 3873 5239 
6174 3910 5381 4174 7664 304 2633 2004 4165 
2982 7723 4154 5234 7122 5228 4184 7849 7525 
7991 4239 5523 8192 7754 6956 7570 4244 5615 
5920 6771 7040 9101 9301 5872 6579 7082 3137 
2531 6331 2833 6974 4183 6368 6827 6877 8225 
9480 9036 9095 9544 5663 5743 5657 5396 9197 
5850 8369 6583 8117 10592 10695 10890 11047 4366 
6171 7555 7917 2716 130 259 3322 1515 1051 
3790 2252 1188 94 90 334 4 126 1622 
3329 675 3210 3145 5021 3038 768 3348 3435 
2169 4775 2568 336 915 3936 1241 2606 3573 
6245 3699 2908 2930 2871 4577 2775 3830 6141 
1433 5104 2781 5254 7650 7698 7794 7826 3475 
3653 6279 6868 6564 5155 4443 4385 8203 5235 
5079 5786 6909 1908 1601 6425 7518 6791 9164 
7981 7242 8615 6919 7114 5932 8228 5909 6703 
6776 8540 10658 10738 4301 1742 475 3459 564 
226 500 1591 1830 422 839 682 3211 983 
933 3511 2559 789 4636 1998 599 544 1034 
964 767 1650 579 4813 4624 5014 2178 2402 
2204 2539 3179 4551 4655 2599 2581 1204 2232 
4104 4819 1432 2861 2190 4585 2298 2196 4052 
3724 2868 2891 6001 272 1741 2472 368 3923 
4826 1116 2218 3922 2401 2759 6186 1232 3924 
6342 4752 1388 6476 2844 4103 6552 6128 3723 
5571 6308 6821 5481 7523 7929 2834 6031 6836 
4269 7966 1311 4005 4055 6505 5267 7982 6784 
7817 7881 7906 6946 5522 3638 5266 7782 4350 
6645 5718 9314 1326 7088 7615 6443 3791 6112 
2726 6851 2739 9233 9406 6686 4311 5895 3617 
7663 7747 8618 8317 9167 8195 1325 8596 9140 
8517 7041 10602 10634 10669 2229 5336 6557 2617 
6327 2289 4859 1746 1048 467 257 1803 1973 
415 1833 1904 1867 3310 1919 3301 3518 3236 
803 4626 4672 4759 4947 1924 4509 1759 1538 
1560 15 1110 539 2495 4987 2280 2139 4991 
3057 2558 834 2127 3777 1017 1499 1286 1150 
4110 2076 2348 2397 6045 3003 2563 3897 483 
2407 6551 342 5478 6237 6428 7957 3530 6216 
6163 2288 3839 4030 2390 7514 6422 6085 6074 
6910 7806 4192 7557 7858 5105 7517 6678 4889 
7009 7111 9090 2651 5940 2311 5262 2799 9102 
5337 7768 9021 5766 6591 6798 8242 1306 6742 
8416 7206 7454 7147 10663 7925 681 1236 2811 
4148 2661 93 234 4974 178 1906 712 1855 
506 1819 1687 3221 953 3303 916 1789 1003 
1097 2591 637 4574 5051 1692 640 3392 3526 
499 826 4638 3496 3186 1223 4776 5057 1230 
1183 6286 357 140 694 321 4668 4131 5017 
1288 6363 2953 2703 6214 1046 7819 745 327 
2145 2161 2653 424 223 3595 2473 6238 8018 
4357 8014 3771 2550 4304 4289 7045 9507 7969 
7934 3971 1943 1704 1709 9472 6730 6805 6783 
5943 9187 9478 7926 4401 9461 9356 8574 8565 
10725 2478 7529 2870 2173 1770 4371 5205 4929 
1364 185 4920 3067 2262 4663 6103 5598 7674 
1074 1332 2117 573 8321 2479 1551 4733 7840 
3853 8386 8624 8127 5537 8309 11004 7716 5922 
9303 6302 4938 3105 3084 3567 1262 314 6223 
601 1733 6210 1787 186 1703 1387 5087 2767 
6480 2893 7588 2892 7740 717 114 1856 4707 
3559 2212 3770 6420 7506 1883 3154 1638 351 
3720 1227 5547 5329 6101 2458 5163 6913 4387 
5276 5198 4219 7055 2988 6261 6764 3863 5347 
4741 6078 3717 5008 2538 9202 5600 6815 4136 
6879 5846 6803 5829 10573 3985 1871 2405 938 
5369 2747 1172 5268 1149 4784 362 3569 353 
1961 3019 348 219 2058 887 514 649 626 
3429 3010 1966 3519 1993 3576 4742 2692 6397 
6474 3375 814 99 3441 274 1493 4584 6094 
6273 3765 2812 5373 7940 3553 2261 6098 651 
8052 7080 3051 5280 6528 3609 7988 7950 4466 
7332 9034 9323 9511 6709 2224 5002 5448 1401 
2863 3654 6835 9423 5570 5859 5213 1226 6740 
5877 2446 8257 6883 5800 5952 5742 6897 8465 
5837 5933 2972 5762 5756 10566 10612 10722 297 
4865 1038 5022 4501 232 5026 3431 2506 1526 
3613 6525 4809 1135 2958 3484 2105 922 1000 
2206 248 1652 73 191 1831 63 1745 1102 
1120 1942 3109 1902 1024 2571 4681 5047 249 
1545 1749 3763 2466 4670 3816 3608 6478 5064 
6341 6463 1472 6314 4442 4096 3905 1466 3931 
5420 6878 7609 7923 6375 5082 5415 7792 7869 
816 5987 5669 9096 7597 9062 6642 10798 10952 
5375 2301 1838 5070 6154 5097 3855 139 216 
1542 3909 5303 7861 7662 4459 3343 1796 7856 
889 1260 1376 3223 1825 2623 4808 2147 12 
117 2001 1931 181 3094 3549 371 1092 3376 
635 3072 736 3372 650 667 2349 3161 3076 
1436 2241 2574 4538 4817 3273 3170 1782 776 
860 3562 2547 1154 1394 2585 3433 3878 4949 
4596 2243 4013 6519 6573 820 1761 1661 1058 
1212 4020 3983 2741 6260 968 2909 2108 2489 