# vtk DataFile Version 4.0
Generated by LIGGGHTS
ASCII
DATASET POLYDATA
POINTS 17423 float
-0.136994 -0.261361 -0.995047 -0.157427 -0.245168 -0.995026 -0.128279 -0.25239 -0.99501 
-0.127294 -0.263805 -0.995007 -0.14069 -0.252079 -0.995009 -0.167007 -0.242387 -0.995022 
-0.14754 -0.24396 -0.995039 -0.155799 -0.250518 -0.986759 -0.143248 -0.247145 -0.986647 
-0.149988 -0.246555 -0.979342 -0.150838 -0.253494 -0.99501 -0.133107 -0.257732 -0.981128 
-0.15858 -0.248786 -0.974823 -0.163609 -0.245558 -0.98279 -0.147718 -0.255434 -0.983564 
-0.165424 -0.244121 -0.969273 -0.123704 -0.24677 -0.977177 -0.123567 -0.267905 -0.986559 
-0.139854 -0.244801 -0.977594 -0.120466 -0.256354 -0.965775 -0.131598 -0.247374 -0.970467 
-0.139875 -0.252624 -0.968657 -0.148763 -0.254729 -0.973653 -0.170445 -0.240609 -0.977207 
-0.146452 -0.24505 -0.970136 -0.138496 -0.243407 -0.964169 -0.155662 -0.241631 -0.968326 
-0.146728 -0.255967 -0.962226 -0.154676 -0.251243 -0.965988 -0.161565 -0.246702 -0.960356 
-0.13431 -0.262662 -0.967031 -0.142064 -0.250066 -0.955669 -0.153107 -0.251878 -0.955572 
-0.132884 -0.250426 -0.959837 -0.127203 -0.241397 -0.963727 -0.1487 -0.244374 -0.960465 
-0.13807 -0.258852 -0.958204 -0.120171 -0.243488 -0.956838 -0.16465 -0.244486 -0.951045 
-0.155876 -0.241097 -0.954368 -0.135728 -0.24253 -0.95443 -0.131361 -0.256455 -0.944978 
-0.130053 -0.264796 -0.957944 -0.123979 -0.243119 -0.947464 -0.12103 -0.269071 -0.957628 
-0.146527 -0.242139 -0.950981 -0.145839 -0.256475 -0.949061 -0.133441 -0.241513 -0.944733 
-0.122184 -0.267985 -0.947752 -0.154051 -0.240826 -0.944493 -0.161681 -0.246728 -0.941754 
-0.143568 -0.247989 -0.943189 -0.153792 -0.251498 -0.945609 -0.169433 -0.241031 -0.938754 
-0.115322 -0.250896 -0.939582 -0.119466 -0.266562 -0.977526 -0.119181 -0.242025 -0.969634 
-0.118731 -0.245084 -0.995055 -0.111767 -0.272896 -0.976647 -0.109661 -0.24737 -0.972645 
-0.118678 -0.270034 -0.995032 -0.0940506 -0.271123 -0.978884 -0.0879902 -0.281616 -0.986088 
-0.0815216 -0.26255 -0.995086 -0.0721041 -0.250077 -0.995016 -0.0949058 -0.260121 -0.988924 
-0.0710834 -0.28635 -0.995048 -0.107887 -0.26413 -0.995082 -0.0793698 -0.243245 -0.995015 
-0.08241 -0.282156 -0.995051 -0.0807822 -0.275108 -0.98821 -0.104518 -0.271346 -0.986668 
-0.0922159 -0.280224 -0.99503 -0.0769605 -0.2848 -0.987144 -0.0993494 -0.273129 -0.99502 
-0.109438 -0.27397 -0.995024 -0.0630877 -0.278715 -0.995037 -0.097494 -0.278443 -0.986754 
-0.0981097 -0.244734 -0.987585 -0.0733346 -0.276665 -0.995047 -0.0652988 -0.268389 -0.995041 
-0.103795 -0.249799 -0.995048 -0.0919883 -0.246812 -0.995094 -0.0836558 -0.252264 -0.99504 
-0.0612462 -0.28857 -0.995008 -0.0674684 -0.274252 -0.987293 -0.0869302 -0.271163 -0.995056 
-0.113763 -0.254876 -0.984929 -0.0657231 -0.284056 -0.986985 -0.0826441 -0.248545 -0.985839 
-0.0743527 -0.267874 -0.990552 -0.0908407 -0.244312 -0.98076 -0.0772098 -0.256357 -0.98865 
-0.0705555 -0.259937 -0.995112 -0.0670335 -0.278917 -0.973788 -0.0736808 -0.244142 -0.986724 
-0.101714 -0.26159 -0.970253 -0.114445 -0.271924 -0.986211 -0.067334 -0.255659 -0.986831 
-0.0819179 -0.265982 -0.984417 -0.0843951 -0.273954 -0.978974 -0.102659 -0.276603 -0.978411 
-0.0676447 -0.270038 -0.978252 -0.0622398 -0.247091 -0.995063 -0.061856 -0.288539 -0.979007 
-0.108939 -0.241275 -0.995062 -0.0909769 -0.253167 -0.976294 -0.0698563 -0.269104 -0.968581 
-0.0744685 -0.276882 -0.980686 -0.0916081 -0.280494 -0.976832 -0.0739603 -0.251849 -0.980381 
-0.0735591 -0.258583 -0.973041 -0.0816057 -0.283516 -0.978407 -0.0647142 -0.258797 -0.977744 
-0.071548 -0.286222 -0.978899 -0.072822 -0.262525 -0.982204 -0.0782973 -0.267031 -0.975206 
-0.0894316 -0.272203 -0.970085 -0.0854156 -0.282407 -0.969257 -0.0779352 -0.276175 -0.971355 
-0.0879134 -0.264001 -0.975601 -0.08277 -0.256935 -0.980409 -0.100683 -0.249966 -0.979567 
-0.0617097 -0.247467 -0.966503 -0.0825378 -0.254925 -0.970636 -0.0954009 -0.249752 -0.96191 
-0.0885533 -0.247089 -0.968864 -0.102993 -0.26634 -0.956122 -0.0651187 -0.287749 -0.969629 
-0.107762 -0.274679 -0.966481 -0.0813304 -0.263903 -0.966282 -0.0765982 -0.255913 -0.96262 
-0.0983283 -0.246144 -0.970733 -0.0815068 -0.246647 -0.976118 -0.082809 -0.274156 -0.96286 
-0.105137 -0.248435 -0.963817 -0.087075 -0.255397 -0.961773 -0.0955776 -0.272278 -0.961792 
-0.0799325 -0.283962 -0.96108 -0.0986891 -0.277986 -0.969368 -0.0703156 -0.278146 -0.964405 
-0.0748139 -0.285421 -0.969509 -0.0701351 -0.249368 -0.971521 -0.0609784 -0.265992 -0.97193 
-0.0697901 -0.240211 -0.995022 -0.087271 -0.240426 -0.989212 -0.103667 -0.276216 -0.95754 
-0.117389 -0.270689 -0.968688 -0.078392 -0.24656 -0.966555 -0.0725829 -0.248197 -0.957742 
-0.0887271 -0.265299 -0.959826 -0.107863 -0.257317 -0.957277 -0.111734 -0.26746 -0.960805 
-0.0742099 -0.28373 -0.952815 -0.0625229 -0.272236 -0.962553 -0.0905017 -0.280797 -0.960833 
-0.0671133 -0.256794 -0.96564 -0.0849777 -0.282333 -0.952624 -0.0799771 -0.262491 -0.955477 
-0.0747293 -0.272959 -0.9571 -0.0683923 -0.286991 -0.960249 -0.0712875 -0.26398 -0.960178 
-0.101579 -0.250134 -0.954077 -0.0607565 -0.256928 -0.995044 -0.107216 -0.241439 -0.985248 
-0.0650857 -0.241024 -0.959306 -0.0862335 -0.245788 -0.959283 -0.0917812 -0.24991 -0.952025 
-0.111013 -0.247315 -0.955847 -0.0833604 -0.241424 -0.950811 -0.095553 -0.278941 -0.952447 
-0.0809883 -0.2526 -0.954092 -0.115327 -0.262286 -0.952887 -0.0952172 -0.258393 -0.956934 
-0.102369 -0.240297 -0.957004 -0.113286 -0.272405 -0.952214 -0.0941164 -0.267661 -0.951638 
-0.085065 -0.272083 -0.953377 -0.0822056 -0.266145 -0.945923 -0.0728778 -0.266405 -0.949582 
-0.0733071 -0.249136 -0.947815 -0.0698367 -0.256838 -0.953329 -0.114698 -0.271726 -0.942326 
-0.0950548 -0.240123 -0.950037 -0.0783118 -0.276403 -0.947427 -0.0998455 -0.260187 -0.948327 
-0.108786 -0.253453 -0.948088 -0.118358 -0.251197 -0.950291 -0.0766729 -0.257987 -0.944539 
-0.062915 -0.250431 -0.956689 -0.063937 -0.265506 -0.953683 -0.102881 -0.276302 -0.946207 
-0.088215 -0.246155 -0.943512 -0.0881285 -0.259001 -0.949563 -0.0652987 -0.241599 -0.94405 
-0.0723594 -0.284788 -0.943036 -0.113596 -0.26065 -0.94305 -0.060731 -0.26657 -0.941727 
-0.0848376 -0.282506 -0.942506 -0.0934809 -0.264301 -0.941629 -0.113004 -0.241092 -0.939584 
-0.0737033 -0.267186 -0.939759 -0.106779 -0.267133 -0.946834 -0.103318 -0.261916 -0.938747 
-0.103896 -0.243248 -0.946625 -0.0834331 -0.27326 -0.938878 -0.0918845 -0.274607 -0.944202 
-0.100931 -0.240285 -0.937502 -0.0996567 -0.252623 -0.941629 -0.0598199 -0.262664 -0.962227 
-0.0587141 -0.280414 -0.967073 -0.0588052 -0.240525 -0.951578 -0.0583287 -0.256513 -0.970334 
-0.059771 -0.279612 -0.949713 -0.0545177 -0.252482 -0.961662 -0.0533243 -0.268161 -0.957027 
-0.0594761 -0.264027 -0.988162 -0.0577824 -0.245929 -0.980881 -0.0401196 -0.247406 -0.96741 
-0.0555119 -0.289756 -0.971384 -0.0550508 -0.261091 -0.978857 -0.0268983 -0.285684 -0.987317 
-0.0424058 -0.280933 -0.995038 -0.0534833 -0.281596 -0.995007 -0.039688 -0.29223 -0.995007 
-0.0273352 -0.293723 -0.995033 -0.0157106 -0.294646 -0.994943 -0.00705537 -0.262774 -0.995096 
-0.0290056 -0.260799 -0.995051 -0.0394975 -0.263901 -0.995054 -0.0458501 -0.271619 -0.995059 
-0.034475 -0.26714 -0.987036 -0.0352584 -0.272946 -0.995059 -0.0011925 -0.27922 -0.995006 
-0.0180679 -0.255457 -0.994993 -0.00701336 -0.287338 -0.995 -0.0331001 -0.284473 -0.995029 
-0.055871 -0.271808 -0.995055 -0.0496248 -0.290848 -0.995017 -0.01373 -0.284825 -0.988051 
-0.0165782 -0.266981 -0.995079 -0.020689 -0.286048 -0.995068 -0.0469838 -0.253901 -0.995101 
-0.0217575 -0.294223 -0.986792 -0.0450078 -0.265892 -0.987022 -0.0513313 -0.262898 -0.995013 
-0.0304887 -0.2762 -0.986095 -0.0273496 -0.250968 -0.995062 -0.0374258 -0.251015 -0.995045 
-0.0207079 -0.277984 -0.986148 -0.0395413 -0.257292 -0.987616 -0.00516309 -0.248864 -0.99011 
-0.0541135 -0.275916 -0.980795 -0.0454869 -0.286281 -0.98723 -0.00814997 -0.294844 -0.988508 
-0.0261888 -0.277299 -0.995036 -0.0161871 -0.277125 -0.995012 -0.0269493 -0.288792 -0.972673 
-0.0334438 -0.293165 -0.987157 -0.0251286 -0.268653 -0.990215 -0.0408745 -0.292141 -0.98059 
-0.0179075 -0.244062 -0.983983 -0.0265089 -0.243284 -0.988873 -0.00786668 -0.272318 -0.992299 
-0.0404424 -0.275447 -0.986918 -0.0362456 -0.284078 -0.984217 -0.00874267 -0.277456 -0.983303 
-0.0142518 -0.2534 -0.972502 -0.0185779 -0.244348 -0.994994 -0.013655 -0.260911 -0.987827 
-0.00459176 -0.286469 -0.984456 -0.00767086 -0.267519 -0.983353 -0.0357295 -0.245507 -0.985854 
-0.026145 -0.256245 -0.981095 -0.0493637 -0.25707 -0.986032 -0.0358506 -0.272327 -0.978606 
-0.00856705 -0.245951 -0.975991 -0.00057977 -0.29497 -0.995014 -0.00895281 -0.258497 -0.97926 
-0.0451517 -0.246362 -0.988879 -0.0103878 -0.294435 -0.960733 -0.0467042 -0.26542 -0.973112 
-0.0141151 -0.294689 -0.980419 -0.0249279 -0.27425 -0.977888 -0.0350317 -0.24549 -0.975721 
-0.0272162 -0.267258 -0.971016 -0.0393547 -0.263027 -0.979407 -0.0177052 -0.268878 -0.983556 
-0.0425581 -0.274345 -0.971479 -0.0432072 -0.251391 -0.980489 -0.0457013 -0.291474 -0.971902 
-0.0512952 -0.290578 -0.980376 -0.0419426 -0.28326 -0.976098 -0.0130286 -0.294729 -0.970463 
-0.0370612 -0.266172 -0.970248 -0.012752 -0.270602 -0.969589 -0.0232469 -0.242618 -0.975728 
-0.0407262 -0.259363 -0.963841 -0.0488458 -0.255524 -0.973355 -0.00102738 -0.263463 -0.975676 
-0.00514461 -0.292569 -0.976592 -0.0391216 -0.282551 -0.966551 -0.0500087 -0.246339 -0.968077 
-0.0385842 -0.255651 -0.972793 -0.0161778 -0.283831 -0.963534 -0.0587096 -0.289008 -0.961954 
-0.0390176 -0.292364 -0.964477 -0.00273329 -0.294999 -0.967202 -0.0128964 -0.284924 -0.978104 
-0.0204098 -0.294287 -0.960298 -0.0328053 -0.275374 -0.969618 -0.0490597 -0.282755 -0.968462 
-0.0224658 -0.24873 -0.967935 -0.0315966 -0.252481 -0.966371 -0.043765 -0.268883 -0.963201 
-0.000751031 -0.279457 -0.970165 -0.0434784 -0.241517 -0.979232 -0.0314435 -0.266473 -0.962039 
-0.0504643 -0.260911 -0.965047 -0.0317263 -0.282738 -0.959833 -0.0533112 -0.270263 -0.966961 
[...]
POINT_DATA 17423
FIELD FieldData 7
id 1 17423 int
196 202 880 4791 6203 1778 5015 3769 2447 
6131 2528 5080 1428 2889 5461 6657 4417 3132 
3980 9008 7063 8492 8311 4673 9106 8591 7425 
3992 7158 10721 6761 8298 7456 10673 8553 7446 
8357 12138 7189 11395 10744 13518 13974 8826 13541 
13574 10361 10215 15257 12059 12665 11740 14493 12722 
11323 1832 10892 818 4263 5272 572 265 294 
536 1777 1514 2027 3106 454 528 1858 773 
740 1027 3730 1086 3321 4708 4790 115 3142 
1022 3453 1981 2250 4598 1452 585 3933 2434 
1491 1234 6332 6336 4071 4645 4508 4806 3812 
3637 3766 5115 7900 322 5045 3352 6219 7586 
2815 5330 7879 3918 7726 4287 4290 4313 4164 
5476 7019 5788 9064 9231 9268 7565 6691 7545 
6782 5792 4457 5852 5869 8247 6839 5763 8253 
6714 4361 4082 8314 10708 10771 10912 10979 8428 
1853 1202 5975 7400 7180 9421 2839 8303 10885 
9292 10981 8461 5977 9656 8350 11107 7213 8594 
12313 3422 5398 6640 9158 8621 7100 5847 5604 
11521 8850 13612 8443 10407 9702 12035 7238 12840 
13562 8255 11039 14019 10443 12853 15050 15097 15316 
11292 8714 13011 12988 12835 11609 12830 12914 12664 
15148 13929 10435 15087 11799 15337 7367 14417 12781 
12975 15932 10878 8143 12799 5147 10512 8223 11124 
1555 4513 7245 5301 1333 3279 429 1550 562 
395 1828 122 1654 1790 3277 190 948 1044 
331 3134 1553 1100 3120 3276 930 2312 3082 
4684 4729 4941 2010 350 155 688 4939 3029 
2090 3364 2259 900 3698 1145 4697 4837 2195 
2350 2700 2784 6224 2060 4959 4891 4862 2203 
2474 2134 5271 2639 6415 4452 7912 946 5441 
925 5059 6548 6507 4419 6445 2669 7762 4262 
6690 4236 4238 4370 5711 4180 6790 4140 8176 
4160 9422 3357 4559 5477 5539 8291 5542 4279 
6622 9109 6804 8325 9400 5710 7431 7387 10894 
6701 6833 4349 10601 9435 5982 7145 9476 5834 
7255 9287 10958 7319 7466 8188 8336 9808 8423 
12394 12487 851 3332 12158 7323 8912 7283 9665 
10080 12083 5764 11608 12024 11576 12019 9876 12248 
8878 11867 13675 2244 7356 6733 13813 8182 12127 
10322 11152 13852 10466 9858 11430 13853 11376 15095 
15543 4248 13503 13050 13515 12164 14029 10335 15389 
14185 11977 11504 15213 11694 13244 12424 364 5379 
6639 4581 5927 2220 1113 669 6403 6536 3411 
2429 1641 35 17 131 328 1717 1599 1890 
1788 608 2189 3230 3408 477 3403 759 3069 
1903 3203 3419 2465 1128 3285 1082 2460 911 
2264 683 4860 5060 37 172 706 1571 1577 
1595 2021 797 4677 4006 2255 4571 4968 1187 
3365 4562 1215 2187 4879 2548 2199 3952 3738 
5341 2300 2578 4847 1365 6126 6358 6517 3735 
4127 101 212 2848 2597 4032 1702 2299 4767 
5530 2873 6466 3782 5091 5404 7507 3726 5237 
2899 5263 4305 7748 7922 2758 6847 5173 5994 
5472 5747 5666 5821 9394 9468 5355 3846 9538 
2849 2901 8006 6743 4378 9103 9457 9773 4249 
6023 9429 10929 11034 5698 8212 6617 5777 8579 
7164 10550 10579 8634 12112 12208 9657 12333 7453 
12236 12483 10699 10837 11150 12087 8938 11331 8125 
11418 10210 10411 9813 13666 13687 13890 14039 12292 
8410 11202 8911 11227 11619 11206 12339 10479 10386 
15210 3982 11519 10082 10263 13639 10222 11187 11607 
11265 13957 13540 13566 12720 13726 12963 12922 15173 
15056 14256 13366 10231 2748 10320 9077 9848 11231 
5367 5078 8012 5227 3000 2913 1997 4631 3916 
3547 1585 263 1668 127 3041 678 2594 34 
1506 3413 1081 588 1020 2461 4793 25 2041 
3224 2016 4748 1409 1244 2409 1498 3396 2611 
1489 2114 1374 4087 6068 6091 6132 6414 2552 
2979 4097 6124 4768 3953 4028 2674 5137 2786 
2463 2214 3775 3941 6071 3661 6377 4615 7855 
8063 4372 6545 7640 7985 7575 7954 7631 5499 
6854 9122 7574 5919 7656 6612 8293 9469 9501 
5640 9037 8256 8324 6681 10690 7308 11022 8010 
9384 10824 10911 10950 10625 10595 10004 9731 10507 
10130 8637 12215 12245 2168 5225 9638 8113 10902 
7212 12411 10697 8724 8896 8534 11461 8906 8844 
11303 13644 13645 12561 14060 12242 10310 12681 12498 
13723 13523 11196 15300 15452 14530 15321 12625 15515 
9475 9243 1886 7913 6963 2676 230 1794 561 
788 3275 3538 4662 1518 551 867 4778 3384 
1106 2267 1454 1355 4619 532 1634 709 6516 
6226 2260 4870 7602 6482 7706 6778 8504 6852 
5498 9066 10817 10807 6721 8578 10127 8401 6491 
5130 3564 10852 12281 12300 9797 10220 11372 13864 
13749 12132 9744 11414 11348 9668 12092 15202 10312 
15084 12921 14144 486 2068 343 1910 929 3440 
3566 2050 790 1866 1730 1926 842 735 830 
2202 1173 3181 436 264 4946 2045 4646 2104 
2239 3832 1363 1271 2081 3632 3742 6143 6481 
135 2123 985 1467 1395 885 4627 2630 2918 
3886 1375 6194 1203 3759 3966 1342 6086 3820 
7584 7898 2613 3978 5416 5505 8071 3647 9192 
9224 8 3603 5250 7775 2725 7203 10554 10707 
5719 7997 1142 8464 10976 10575 10910 7153 10027 
7484 9739 8290 8927 12135 12155 12239 12416 8602 
9636 10129 13954 12470 11403 13914 14025 12096 12766 
13094 13130 15269 10038 10148 12871 10368 10311 10441 
12933 15489 1420 3935 8469 1196 4404 4074 3009 
615 987 3325 1807 1530 3297 206 1814 108 
335 1672 1677 51 850 3036 781 325 666 
3014 1284 939 1870 956 2579 4650 4792 4869 
3409 912 855 1164 1437 4878 4953 725 2319 
1913 3488 2100 589 4951 2505 4120 1361 4693 
4118 4934 6392 6469 4706 2866 3450 4061 3694 
6097 6353 2719 3328 5455 2660 3875 2635 3959 
5145 2951 4434 3578 7974 8019 3884 2256 2520 
4566 7124 7661 4534 7625 7668 6768 6556 7093 
4376 5090 5660 9285 4426 1724 2978 5574 5310 
6140 9137 6772 4469 7837 6699 5981 8180 10646 
10827 10856 10943 11003 7563 1032 4088 5062 1722 
6550 6082 9079 6628 5725 7037 5695 10631 8375 
9574 8559 4409 9864 8566 4138 7262 7347 9671 
7167 7277 9639 10786 1379 606 12531 3712 1085 
4721 12279 7389 12318 12341 11542 12195 11492 12071 
13615 10561 13981 13538 10243 13520 14236 10295 12608 
12825 11283 13044 12642 13114 15155 9041 97 15247 
10336 8745 12715 14206 12845 12838 15369 11653 13027 
14342 12635 14015 12623 12828 13177 11783 5686 6750 
10922 7156 11529 672 10577 837 2732 12289 12384 
9509 4402 2769 6118 3680 7749 9486 7835 6905 
4494 2064 3438 2721 2689 1699 2537 2089 1700 
3283 990 4835 1957 1925 721 1524 3191 543 
3534 4544 1533 3234 1939 3032 4864 535 1623 
72 1510 392 333 1016 2225 3881 4921 3844 
4783 4868 4546 4964 2885 6197 6383 6449 832 
4696 4839 3180 2419 4727 4642 3908 6007 6282 
5143 7505 7658 8059 5486 1298 2589 7582 6547 
3388 7947 6581 4390 5488 9239 9342 9567 5503 
9256 7501 5668 6930 8582 5760 8610 5538 8296 
10629 10863 10975 9460 906 1408 5167 3781 2608 
5616 9228 5180 7864 6928 10613 10946 9048 8629 
10921 4265 4436 9646 10652 10681 10754 8575 8208 
10804 9047 10720 7444 7314 8500 8178 8742 2468 
8439 8453 8960 8733 8122 12302 10125 8772 13109 
5997 8616 9664 10010 9743 12878 13820 11077 8710 
13962 12172 13530 13804 13865 12607 9628 12843 11095 
13781 10167 10193 13968 11500 10446 9710 6819 9760 
13706 14006 12707 11287 11675 12955 9735 11458 12117 
10717 4319 10630 5644 5153 5673 5840 856 2665 
6121 6459 6559 5348 9370 164 2167 2764 5253 
3570 4715 2596 2373 287 1617 495 1693 646 
1723 3456 2132 2522 4541 2067 802 459 2432 
2448 4851 685 1516 2529 1753 4504 4505 5007 
1253 2546 2508 1261 1210 1021 2096 2283 2697 
6253 6485 6502 2524 4593 2485 1265 426 1588 
2999 2347 2240 5464 1328 5357 7893 7897 4611 
1301 3670 4480 4523 6419 5190 4756 2804 6247 
4134 2502 4278 4051 5334 5236 4143 4438 3826 
9128 9291 5246 7509 5422 6393 275 6561 2148 
6063 4486 9369 7128 5773 9385 8363 10647 10675 
10834 10970 2715 6848 8409 9279 3131 6408 546 
4243 9540 6796 8129 8251 10593 10773 11020 9622 
8184 9792 7417 8168 7364 8429 8163 12102 12476 
5224 4495 6725 8586 6989 12393 7169 9849 11215 
9946 11566 10389 10205 13718 13736 14033 14038 10117 
11483 11192 10235 13863 7303 9921 10248 10230 13021 
10161 13794 12814 11658 5658 12297 13722 12994 12847 
7058 13913 15411 13719 13845 11205 15111 15415 15517 
8837 11873 11563 13379 8279 13979 11220 10969 7133 
13950 5696 3944 3997 455 7735 3066 3108 648 
1272 4936 2753 1916 26 78 962 1880 618 
3065 1664 408 991 786 858 622 873 577 
1124 261 583 2329 1732 1718 1876 4520 691 
3378 4873 2457 4621 4940 4983 4527 1214 3866 
5419 1483 6271 6454 128 1619 1118 1716 779 
5565 6228 6077 4077 3164 5294 7600 2934 5165 
7980 5667 6937 4194 9320 9528 9057 6201 7526 
6978 6577 9445 4346 5769 2906 5767 6580 8114 
6816 5884 10026 9790 6971 10545 10638 10639 10711 
10753 10823 4510 1075 5520 9304 4829 8310 6957 
10745 5828 10964 11157 7339 9655 8419 7139 7152 
8455 12046 12263 9676 8349 11170 5964 1446 9828 
6938 8841 8861 5600 9804 8331 12520 9601 11091 
13881 8898 11625 8528 10176 13665 9771 13607 11546 
11267 12648 13084 14198 15344 12565 3068 10700 11533 
11479 13088 12486 13647 12627 10388 11606 15416 10352 
13859 10402 14631 15656 12948 13953 13634 7827 9093 
10747 7276 4214 373 2162 6080 4448 3165 7125 
942 3498 3669 2859 2336 3835 1800 31 423 
1660 266 107 3079 512 3257 548 463 2403 
3004 644 886 4507 1780 2073 292 182 4815 
1252 4038 4794 2138 2268 1447 624 3882 4651 
2541 2622 2075 2806 3991 6029 3784 2386 6265 
6484 4004 3642 2824 1484 5563 2222 3714 2828 
2771 4035 6638 5378 6501 4339 7530 7583 7932 
3060 4045 4754 2818 6530 4344 5288 8029 7851 
7962 2927 4332 3162 1470 4272 628 4157 5555 
9470 8333 7101 6797 8390 5682 6013 8449 6630 
6829 1371 9767 9833 10547 10608 10937 10954 4369 
1962 10585 9276 8399 9387 6951 9728 9261 8244 
7372 5885 6856 10567 10106 8407 9913 7472 9803 
7258 9815 9740 7265 9761 10122 11126 12043 12226 
12396 6952 6998 1990 5504 8328 12078 12564 12405 
6641 7235 11018 11023 12436 8265 8677 12511 12345 
9901 10014 12115 8647 11626 8855 13969 9865 13905 
8667 12429 11621 12347 12312 11203 12996 11472 12559 
11473 10284 11306 10275 11526 11685 11118 12732 11166 
15067 9898 12626 8946 13975 13613 15170 15370 14146 
12802 15279 14261 15553 10484 15096 14108 11885 12792 
11923 8883 15283 12930 11599 809 5809 9503 3719 
5535 7591 7018 8546 7006 2772 4999 5281 1179 
4710 2475 5471 1061 538 1340 2802 1938 1527 
861 16 409 3342 1842 1976 1600 1983 329 
1964 3407 414 1905 1582 3296 1574 3542 1033 
1186 4880 926 5054 4587 3306 3483 3527 2593 
3546 2501 3393 4053 2535 1497 2456 4854 2087 
4597 1469 1246 865 2382 2406 2789 6017 2826 
726 1461 3754 4633 2835 6352 2855 2509 6193 
6313 6048 2857 3673 7637 7781 8005 575 6259 
3368 817 1200 7611 2994 5384 1273 6980 2200 
4462 1255 5493 2989 7059 5220 8427 2188 4153 
2415 7753 7568 5944 9413 6990 5545 5531 6668 
9491 7216 4487 6680 8081 8397 6965 6942 10980 
4737 5509 6979 5887 10831 10959 7304 9087 9244 
9345 10518 10866 8612 5734 11541 7168 5656 9631 
8230 10938 9939 7434 10783 10607 10872 8353 12484 
12541 8088 12241 12042 7175 8893 12252 11121 8846 
10037 11488 8858 12336 8881 13581 13650 5146 9663 
10963 12203 12244 11190 8705 12081 12287 11302 13725 
13734 13756 7322 13099 12767 12322 11499 11759 12504 
13569 8135 2743 8762 14063 11131 13837 11240 15052 
15086 15424 11909 15288 12467 14482 9912 8740 2843 
4003 5485 9759 6119 6892 3264 2043 194 566 
3307 4556 462 163 472 347 509 1698 1946 
3298 3478 3427 3921 2398 1955 3062 309 3008 
636 605 898 540 1299 3679 1366 3746 4915 
2375 2624 2427 6164 1846 3752 3976 3818 6055 
2936 1324 1099 6065 5591 4382 7097 7581 4226 
6961 4897 2304 1257 9177 6880 3667 5382 9257 
9259 7704 7732 6888 10953 10508 10925 11052 9031 
1216 5951 9736 5631 10916 10635 10124 12033 10682 
8105 9943 8795 12170 8969 9881 10088 6696 11536 
7451 11498 10240 8990 8925 10351 13911 10365 10183 
5950 1404 14068 8884 12913 11558 12282 10200 13765 
13556 10337 12733 13221 507 2052 508 3258 1826 
80 1929 1763 1018 888 453 3465 4944 4898 
4753 6006 159 1036 5370 2612 6034 2752 521 
1610 2761 123 6202 6535 9182 4427 9417 7677 
2164 9127 10564 6378 4188 5650 2963 5874 11212 
6656 4362 8731 12223 10939 8845 8979 10199 14008 
13093 12841 13633 12769 15485 4429 7241 13815 13582 
15560 9973 13918 1453 5340 3217 4455 8888 6831 
9322 7967 4445 6145 3930 6207 7665 5063 339 
2276 2966 1177 2277 33 1909 441 1739 568 
2062 515 3337 3391 3140 338 1891 428 2040 
3011 3418 658 958 1131 949 2181 3073 952 
2555 841 1774 3683 170 375 3018 250 4866 
3176 1694 4699 701 4690 3064 3114 3202 3504 
2358 3358 4730 2782 2627 4910 2221 2353 989 
2609 2346 3715 6421 2883 1911 4529 3877 418 
4930 6183 6570 6155 2693 4113 3870 1353 1133 
2973 1345 4694 3932 3912 6391 7679 4779 6173 
3842 5172 4632 4000 6384 6225 9018 9307 5768 
7813 3979 3778 5287 5925 9531 5086 9451 8011 
9310 4220 9674 238 6412 224 3630 7836 416 
3426 3970 4491 9027 8483 7201 9750 5038 8240 
10806 8323 7210 12125 12160 12435 12462 9620 8295 
11522 12636 10055 10003 13851 14010 7497 12217 12326 
12974 13861 11239 5924 13552 13697 12985 10356 13058 
13773 10290 10146 11620 12729 15276 15304 15475 708 
7257 13870 11201 15109 15437 14454 13524 11787 15275 
12610 8196 11326 14563 14190 1624 12124 10045 3867 
5308 6624 10967 11384 11511 8358 11103 4040 9610 
10782 5400 9553 1134 9612 2098 8580 4691 3261 
3125 1543 402 2046 458 632 556 1504 3555 
3046 821 647 4667 389 4749 1804 4931 1316 
4850 67 3030 1269 2363 4678 2233 1450 5073 
2257 723 2543 5517 1462 6179 6190 6401 1587 
3035 1980 2510 2887 3692 2118 3942 7515 1754 
3958 5612 7857 3880 6105 7983 8057 9186 9431 
4015 2905 3505 4522 4389 9119 6032 6774 5175 
770 2462 7419 8592 6795 10589 10021 11122 8678 
10089 7494 2020 11191 13531 9920 12265 12823 6496 
11639 14312 9840 13936 15203 14465 12947 13039 53 
12261 10873 12308 801 5049 6500 3510 2919 3957 
3659 6134 3557 5343 4970 2088 9334 2165 366 
527 5431 5502 6172 3840 5543 2411 293 3710 
2361 5452 4209 2306 4540 1360 3220 3563 355 
3085 547 3284 843 4937 306 3552 3151 2275 
4092 352 4976 3340 2511 2194 3972 1879 602 
6003 2694 6252 3588 3864 7973 3232 438 6541 
6053 4024 5450 77 4545 6054 4928 7847 4374 
5033 5536 5089 4471 6464 6931 1194 6636 7022 
7829 8008 9151 9396 9504 7621 5126 9175 9489 
6977 9080 4218 5338 3926 9190 9349 5908 9493 
9139 6953 6763 9049 10654 9181 8462 9926 11255 
9677 10814 9959 12277 12534 8246 10553 5948 12552 
9845 10084 12542 13878 10582 8708 7293 12889 13695 
14457 11185 11151 11642 10227 12982 15374 6707 8392 
12137 7177 12365 12031 11312 13580 11182 11050 13873 
13841 15372 8673 11910 13327 12890 11296 9948 7928 
210 3290 7907 4933 6229 8498 9506 9226 6793 
9017 5637 9554 5753 4251 4080 4351 9063 4811 
518 484 810 451 6527 1274 811 1114 4763 
3252 522 695 1869 4623 2610 4703 3457 3582 
2569 5030 734 3672 5354 4089 5157 6191 4111 
3707 3100 1438 6569 6146 3803 6015 4068 5277 
7642 8025 2932 3514 882 545 1760 6376 4800 
5596 5583 4328 1373 6204 4268 6351 5346 6470 
7777 6127 4950 6749 5432 6902 5495 5149 4472 
4098 6682 9125 9159 9219 9266 1218 4019 4481 
4185 6882 9344 9537 8389 4398 7508 4150 5814 
7092 9165 6941 8598 5726 7437 8121 10685 10736 
10826 11001 4191 9108 5968 8023 8430 6832 7326 
8307 10870 9575 8306 9953 10033 9852 8974 12357 
5302 8712 5915 9975 1478 12431 12412 8825 12831 
14057 11364 8690 8920 13003 9812 11401 13550 11475 
11325 12539 13023 12578 9869 12851 13742 9645 7121 
12967 12343 12927 13739 12920 15527 15569 14408 15378 
10283 14393 11773 11501 11704 11779 14590 11684 14080 
14579 11402 8448 8959 8080 11137 9363 4453 10622 
5046 1197 7746 4894 6257 277 3024 6734 5085 
1711 6008 3975 1670 4550 1885 6199 3550 3107 
448 792 2066 976 977 2577 6 2433 4554 
4617 634 4676 2421 4517 3810 1369 3580 6156 
6554 3 1151 2449 4988 6161 6116 6281 6348 
5179 4119 5533 2670 5474 3022 2033 4801 3888 
2858 4473 5201 4441 5576 8354 8300 7559 6896 
5259 9519 3621 8352 6587 8222 6715 8171 7048 
7682 9437 8201 8431 10877 10897 10948 11008 2055 
9403 2904 9412 8411 5368 10523 5671 11035 8209 
8099 9173 11442 7188 9742 10057 5647 7362 8313 
12219 12320 2335 2655 7572 10555 9659 7171 11014 
12171 12536 10111 8338 9722 9589 13702 3495 11194 
3919 9911 11367 10476 10387 13603 11825 7353 10237 
12946 10135 10209 13831 14347 15088 15414 4312 8650 
13995 10316 13516 14317 14591 13828 12865 15174 14440 
12602 9824 8828 4364 11362 5905 13777 10063 4276 
6970 7788 4981 3423 4871 5619 6724 9411 2787 
5728 6648 3802 2186 4762 313 502 3095 1829 
603 1590 141 401 358 995 3449 256 476 
2044 840 1849 3474 655 3443 3204 864 2430 
4543 3059 3055 4515 1143 1341 2216 1256 4025 
917 1277 812 2912 1182 6298 6417 286 3774 
4072 4774 2941 4830 4659 2028 6038 4116 2952 
2708 3678 4449 7532 4722 5529 5526 1339 6844 
3591 4044 4258 2766 5516 6973 6966 9058 2832 
1812 6168 2803 8037 6924 9144 9550 2779 9112 
9169 7755 8532 8260 1319 5761 9142 8518 5754 
6889 7086 10678 10985 11006 4961 9487 4315 9462 
6822 7222 7490 3737 6618 7204 9789 8250 7321 
9993 8312 9878 8197 7143 7146 8747 12352 12459 
10998 12250 12010 9100 7461 9426 9724 7104 8765 
9583 9699 10112 11136 11279 8892 14036 12310 11319 
7430 8341 11141 11594 11462 14023 10169 12286 7391 
10350 13971 11104 12832 15240 15532 8947 5136 10102 
9945 10265 10367 8645 13825 13073 15136 10192 11993 
11718 13766 12224 10488 11577 13998 14485 13038 14298 
12837 9778 9651 10655 12530 8516 8329 7408 4178 
6147 2278 3689 6152 7653 4810 1347 785 1264 
3951 1359 4979 1836 1696 1822 2445 1060 1531 
1297 5056 379 1852 2019 1956 760 1007 3529 
1932 60 677 746 1639 1011 3401 1221 4555 
4789 3251 909 3098 967 82 2341 281 1865 
3323 4516 5058 2130 4788 3929 1425 2237 4049 
6416 6430 3856 3078 4731 1161 1494 3965 3681 
2286 3507 5607 5439 5424 6413 2685 5623 7511 
7699 7878 845 2671 1228 3890 719 3859 6020 
3762 3761 4322 7865 4144 4291 7106 4132 7800 
7867 5429 7127 5790 6646 764 9500 9214 7056 
5558 4320 6767 6886 4709 8120 6788 9508 6625 
3446 6920 6901 8506 8191 10719 9337 7360 8271 
6843 7131 7500 9967 7485 11404 9594 8092 7392 
8513 10009 7297 12032 12082 12182 12183 12505 1562 
10099 8254 9584 8658 9544 10664 8660 11344 8840 
10018 11439 9886 11470 13505 13536 13869 9183 11345 
10846 9712 9641 11383 10314 10477 11527 12881 15562 
10713 13924 6623 285 4536 7885 9375 8972 633 
7182 2223 8607 9751 10329 10492 13959 15537 13048 
8112 9585 8702 8159 10999 10684 4084 4128 5867 
2338 4923 992 2215 183 1841 1091 3063 151 
1847 1068 1735 815 1073 1071 40 3455 3447 
2556 3023 4717 1651 1900 501 1030 4530 3389 
957 2074 687 4998 2179 1448 473 4612 1130 
1479 3753 3986 2387 2379 4960 1318 6317 892 
195 4640 6511 6369 3946 4011 5627 3674 2723 
4885 5095 2638 6321 5599 2795 2827 7809 8053 
2681 3789 7720 3788 7595 7844 5256 7975 7761 
6813 4133 7896 4156 5832 5936 9386 1918 3990 
394 233 6059 4252 5402 9251 9374 9473 6769 
5983 9083 6584 7057 5744 9208 9234 4450 6610 
6846 8096 10811 10828 4244 7114 2756 6830 6988 
10794 9563 8405 10829 9498 9318 9737 7144 4212 
9755 9675 8477 10049 9807 7481 12522 8527 10530 
11049 9834 8535 12364 8917 11412 8875 8783 7310 
11627 12146 8978 7379 8688 8216 9990 9930 10324 
9630 12178 14058 9650 8750 10472 13031 13993 13539 
11153 9995 8670 12833 9505 14073 12942 12152 12938 
7261 11259 11505 8684 12227 7416 13807 12976 15191 
15325 15561 13943 13821 13619 13667 12995 12687 14576 
10256 4353 10865 6058 8378 76 337 6196 1950 
3222 118 3146 1729 4618 2328 955 1317 2557 
4685 4785 1185 2731 3308 260 3195 6114 2120 
1111 4744 6066 305 2796 7808 4394 5483 7669 
7939 9055 9383 4410 744 8001 3779 5609 6635 
9561 9572 4366 6776 6338 8140 10928 9859 12085 
10549 12119 10104 8864 11048 12106 14051 9542 8151 
13735 13797 11112 13115 10471 10413 15238 12506 10002 
1296 3090 531 6083 1603 1945 4712 2031 70 
965 3113 39 283 1628 1713 1864 2320 3469 
2133 4630 4814 5011 1575 1076 1056 1629 3525 
3196 2408 1477 4967 4725 5069 3898 3773 5309 
1136 3960 4884 1975 1174 5405 6304 6339 1314 
6052 2720 5387 3644 2823 1307 2746 2990 6269 
7513 2011 3044 4780 6540 3416 6553 5524 3793 
7573 6404 7694 5188 4384 8467 4325 7763 6711 
9152 3889 116 5299 5245 3849 5965 6885 9097 
9447 5875 5708 9131 6849 7047 8214 7399 5688 
5701 6613 10623 4465 7952 1310 5900 6686 5636 
8319 10904 5972 8110 8597 5715 9653 9644 8514 
10030 8633 12196 12207 12557 5642 10936 6616 4311 
8258 5913 10096 12159 10334 9863 8822 8753 8814 
11213 8299 12088 8722 12144 12908 10418 12821 15388 
4428 9832 8944 10470 10070 11243 11644 11975 15392 
10214 8543 15092 10934 12209 12174 11127 13732 9416 
12306 4664 2762 567 5025 1971 3382 2345 2115 
2093 1927 4827 625 702 1537 3133 1972 1557 
1705 660 704 3126 1534 197 1901 1757 1123 
1912 1576 3248 936 894 4844 4846 4905 1572 