# vtk DataFile Version 4.0
Generated by LIGGGHTS
ASCII
DATASET POLYDATA
POINTS 5996 float
-0.132817 -0.262258 -0.993617 -0.13341 -0.254527 -0.985783 -0.157387 -0.246688 -0.993613 
-0.151749 -0.245164 -0.957914 -0.123913 -0.259977 -0.985145 -0.165974 -0.240644 -0.992962 
-0.142296 -0.255852 -0.99191 -0.132438 -0.240075 -0.993965 -0.147406 -0.249216 -0.983315 
-0.0703644 -0.241792 -0.983552 -0.107102 -0.271893 -0.983963 -0.0822653 -0.25445 -0.991688 
-0.067795 -0.252326 -0.993221 -0.0853452 -0.264319 -0.978235 -0.0701623 -0.279235 -0.994692 
-0.114255 -0.250166 -0.986127 -0.114197 -0.261318 -0.944621 -0.0650337 -0.241528 -0.994297 
-0.0828719 -0.270186 -0.993727 -0.0920517 -0.279682 -0.978503 -0.116709 -0.255341 -0.964942 
-0.087335 -0.280362 -0.98753 -0.061449 -0.276686 -0.982154 -0.0850805 -0.248609 -0.975901 
-0.0829331 -0.247384 -0.962112 -0.078 -0.278659 -0.962763 -0.0994399 -0.277529 -0.963434 
-0.100646 -0.275521 -0.950031 -0.0613624 -0.263402 -0.955608 -0.105754 -0.253505 -0.950181 
-0.0948302 -0.249801 -0.985069 -0.0350141 -0.272806 -0.994986 -0.0443464 -0.250061 -0.994957 
-0.0470435 -0.281532 -0.994841 -0.0299415 -0.281405 -0.994998 -0.0259917 -0.293757 -0.993611 
-0.0154925 -0.290362 -0.994697 -0.0184976 -0.263727 -0.993851 -0.031019 -0.259927 -0.994916 
-0.038011 -0.261206 -0.986832 -0.0064731 -0.292286 -0.970793 -0.0477371 -0.261178 -0.982329 
-0.00949055 -0.293791 -0.986135 -0.0593391 -0.255218 -0.973835 -0.00011148 -0.265392 -0.991151 
-0.00734978 -0.259448 -0.978267 -0.0209313 -0.289251 -0.986071 -0.00330727 -0.269302 -0.974699 
-0.0582819 -0.255919 -0.992378 -0.0297581 -0.243429 -0.985812 -0.00859096 -0.283266 -0.988733 
-0.0376502 -0.281708 -0.987259 -0.0535424 -0.271041 -0.99097 -0.0403831 -0.290004 -0.992314 
-0.00923114 -0.281281 -0.97797 -0.0145915 -0.251378 -0.988178 -0.0559942 -0.246646 -0.989478 
-0.0330507 -0.254598 -0.961107 -0.0538712 -0.272112 -0.967074 -0.0246369 -0.245717 -0.960386 
-0.00448028 -0.271565 -0.965234 -0.0394195 -0.271755 -0.954351 -0.0215568 -0.272654 -0.975959 
-0.0480665 -0.254116 -0.942875 0.00820047 -0.287929 -0.994596 0.0175388 -0.283402 -0.994103 
0.012447 -0.289744 -0.979945 0.0243551 -0.268701 -0.992771 0.0490759 -0.265718 -0.992916 
0.0431294 -0.256649 -0.980587 0.0440475 -0.281506 -0.993733 0.0374379 -0.287811 -0.988931 
0.0100757 -0.267694 -0.99414 0.00549401 -0.258738 -0.95557 0.00274527 -0.264265 -0.980682 
0.0331967 -0.243081 -0.960685 0.041805 -0.258582 -0.990514 0.0354709 -0.272729 -0.995073 
0.0593721 -0.288303 -0.994294 0.0582833 -0.276527 -0.990278 0.0491669 -0.281475 -0.98474 
0.050527 -0.288805 -0.978402 0.00541927 -0.269196 -0.94932 0.0343786 -0.276722 -0.98451 
0.0572156 -0.267609 -0.984788 0.0239395 -0.248215 -0.978467 0.0164253 -0.247942 -0.990492 
0.0388866 -0.267154 -0.986482 0.0581111 -0.254555 -0.992858 0.0547323 -0.244403 -0.992508 
0.00607859 -0.276134 -0.982728 0.0453981 -0.242634 -0.983986 0.0247548 -0.282131 -0.984728 
0.0284263 -0.291888 -0.953839 0.0569383 -0.256943 -0.952403 0.026372 -0.260914 -0.977318 
0.0331181 -0.287519 -0.940123 0.00840698 -0.290642 -0.958231 0.0267619 -0.292984 -0.99373 
0.0317855 -0.253609 -0.994876 0.0683614 -0.279723 -0.994284 0.060237 -0.28043 -0.980458 
0.0818251 -0.247295 -0.979105 0.119717 -0.264014 -0.986088 0.0810319 -0.275213 -0.993582 
0.0682742 -0.267256 -0.991256 0.0675453 -0.247925 -0.994403 0.118912 -0.269041 -0.994879 
0.106511 -0.268286 -0.950796 0.0915405 -0.266631 -0.995078 0.119364 -0.24229 -0.949819 
0.0879195 -0.257422 -0.994093 0.0998426 -0.274195 -0.972708 0.0665081 -0.255384 -0.987794 
0.0834677 -0.249531 -0.989978 0.114808 -0.240814 -0.982114 0.0674019 -0.250284 -0.956614 
0.0657835 -0.25405 -0.977251 0.0933248 -0.265674 -0.976905 0.0781229 -0.270081 -0.978037 
0.0713326 -0.276652 -0.96306 0.1187 -0.252131 -0.943558 0.0937079 -0.272424 -0.955445 
0.120123 -0.257523 -0.995023 0.142112 -0.244177 -0.989334 0.143778 -0.248283 -0.9426 
0.165367 -0.241472 -0.981707 0.131666 -0.249237 -0.993947 0.154025 -0.241645 -0.986034 
0.129917 -0.247494 -0.983913 0.129645 -0.261259 -0.994963 0.15192 -0.242197 -0.941529 
-0.231536 -0.182594 -0.994898 -0.180614 -0.191972 -0.992843 -0.205752 -0.188461 -0.995167 
-0.201451 -0.202049 -0.992877 -0.196746 -0.214571 -0.994949 -0.223789 -0.190193 -0.968024 
-0.193225 -0.219112 -0.981866 -0.192185 -0.20929 -0.98781 -0.182346 -0.220687 -0.995063 
-0.181881 -0.204312 -0.994466 -0.183546 -0.181758 -0.994891 -0.188929 -0.20226 -0.97515 
-0.188744 -0.22599 -0.989011 -0.182917 -0.228422 -0.979389 -0.189584 -0.18802 -0.981409 
-0.211099 -0.199762 -0.992301 -0.204373 -0.206 -0.980544 -0.183842 -0.212188 -0.971671 
-0.201203 -0.205084 -0.965919 -0.209323 -0.189844 -0.986107 -0.197847 -0.190843 -0.987229 
-0.207569 -0.204707 -0.956108 -0.126024 -0.226427 -0.991049 -0.130274 -0.219201 -0.981644 
-0.160936 -0.238407 -0.984471 -0.177271 -0.235563 -0.992204 -0.168909 -0.182056 -0.994374 
-0.162912 -0.20415 -0.989679 -0.132243 -0.180238 -0.961114 -0.173195 -0.238988 -0.976927 
-0.130102 -0.21373 -0.994642 -0.151338 -0.233166 -0.99439 -0.167264 -0.212359 -0.993395 
-0.131567 -0.216631 -0.951189 -0.157035 -0.223085 -0.993687 -0.129356 -0.229911 -0.96327 
-0.146759 -0.194169 -0.976275 -0.174532 -0.199511 -0.986835 -0.16551 -0.194306 -0.993177 
-0.168174 -0.225141 -0.978409 -0.153487 -0.211259 -0.988824 -0.121264 -0.205293 -0.992461 
-0.138336 -0.212459 -0.988388 -0.141788 -0.201662 -0.993976 -0.177573 -0.213299 -0.990409 
-0.165985 -0.202616 -0.979829 -0.145485 -0.226358 -0.98595 -0.142321 -0.201618 -0.942033 
-0.179716 -0.182559 -0.937727 -0.137743 -0.200667 -0.971874 -0.15906 -0.209852 -0.973178 
-0.120962 -0.23695 -0.953843 -0.148889 -0.180249 -0.99068 -0.123414 -0.239756 -0.987519 
-0.14618 -0.191214 -0.991197 -0.107695 -0.19578 -0.944396 -0.109979 -0.200853 -0.985668 
-0.0644011 -0.182353 -0.988069 -0.0800407 -0.239003 -0.974257 -0.0974689 -0.183638 -0.963108 
-0.0632726 -0.216071 -0.985036 -0.0716342 -0.213416 -0.956044 -0.0610456 -0.225497 -0.955321 
-0.0913484 -0.238012 -0.975206 -0.074419 -0.194271 -0.975533 -0.103588 -0.186309 -0.9475 
-0.0901727 -0.233375 -0.963195 -0.0771598 -0.22787 -0.989218 -0.115749 -0.201753 -0.965785 
-0.0630229 -0.226685 -0.938279 -0.0881254 -0.21417 -0.959046 -0.101837 -0.221191 -0.962536 
-0.0992687 -0.182607 -0.994781 -0.0211195 -0.234541 -0.986816 -0.0368464 -0.21486 -0.994929 
-0.00260157 -0.219788 -0.994338 -0.059236 -0.233283 -0.969979 -0.0259717 -0.224015 -0.995007 
-0.0181545 -0.181828 -0.994434 -0.0462445 -0.195468 -0.979733 -0.0178367 -0.200575 -0.993474 
-0.0593338 -0.227095 -0.980039 -0.0199664 -0.221749 -0.976992 -0.0420347 -0.224613 -0.945562 
-0.000116339 -0.187772 -0.990169 -0.0548484 -0.217437 -0.969266 -0.0328489 -0.20662 -0.96531 
-0.0432729 -0.233447 -0.988435 -0.0596804 -0.205167 -0.990244 -0.0160939 -0.216825 -0.994739 
-0.0222583 -0.192055 -0.981288 -0.01172 -0.228194 -0.967621 -0.00928498 -0.232855 -0.950602 
-0.0451519 -0.206301 -0.969206 -0.0226864 -0.234533 -0.947303 -0.0436694 -0.239862 -0.971637 
-0.00503429 -0.180041 -0.98407 -0.0580624 -0.239846 -0.979818 -0.010426 -0.239294 -0.989557 
0.0377156 -0.221408 -0.957715 0.0349255 -0.21604 -0.975806 0.0567138 -0.216551 -0.987529 
0.0170415 -0.188696 -0.991564 0.034973 -0.1801 -0.971802 0.016254 -0.212561 -0.990886 
0.0487973 -0.204194 -0.9789 0.0150036 -0.22933 -0.990209 0.0365546 -0.226064 -0.987501 
0.0430839 -0.194638 -0.993229 0.00196395 -0.230392 -0.982269 0.00926087 -0.221702 -0.994346 
0.0460387 -0.231072 -0.994885 0.0456086 -0.221389 -0.991905 0.0189199 -0.217177 -0.976424 
0.0469633 -0.204151 -0.990804 0.0564706 -0.194747 -0.989973 0.0229316 -0.225118 -0.959667 
0.0301667 -0.232448 -0.992925 0.0256211 -0.19777 -0.993715 0.0548404 -0.192793 -0.977997 
0.0538209 -0.183376 -0.992169 0.00611527 -0.202694 -0.991298 0.0393112 -0.236049 -0.988649 
0.0395409 -0.202368 -0.962545 0.00968659 -0.208031 -0.982137 0.0372519 -0.215608 -0.988415 
0.0523621 -0.208532 -0.949858 0.0313256 -0.234861 -0.982708 2.34175e-05 -0.206422 -0.966118 
0.10627 -0.237391 -0.964058 0.0879037 -0.183064 -0.983567 0.117505 -0.213511 -0.994071 
0.0758205 -0.188124 -0.990619 0.0814981 -0.221259 -0.981547 0.103468 -0.222845 -0.976345 
0.0876117 -0.207705 -0.991416 0.0836884 -0.183407 -0.994737 0.0629237 -0.206826 -0.993235 
0.0924937 -0.189966 -0.99352 0.0647146 -0.216269 -0.994439 0.0787439 -0.227495 -0.994975 
0.112972 -0.209669 -0.943793 0.110281 -0.197718 -0.995014 0.100415 -0.20798 -0.987271 
0.0867401 -0.238411 -0.964311 0.0652166 -0.19317 -0.971656 0.101096 -0.186961 -0.987952 
0.102513 -0.195612 -0.972103 0.101232 -0.220925 -0.961814 0.0609426 -0.237471 -0.974076 
0.114325 -0.2023 -0.987135 0.0635262 -0.230966 -0.989196 0.0804936 -0.202424 -0.946411 
0.0941765 -0.19907 -0.988353 0.0803916 -0.186784 -0.97049 0.107959 -0.202794 -0.975462 
0.0945652 -0.213703 -0.945738 0.0902705 -0.22564 -0.946427 0.0855436 -0.208453 -0.965785 
0.0950561 -0.232875 -0.954059 0.115004 -0.188629 -0.994684 0.119662 -0.222425 -0.9895 
0.129491 -0.233333 -0.987761 0.145174 -0.22706 -0.99042 0.128729 -0.206822 -0.993223 
0.150822 -0.233055 -0.972419 0.123407 -0.213757 -0.971925 0.133837 -0.196272 -0.990817 
0.159733 -0.225808 -0.983125 0.153283 -0.210467 -0.993643 0.16421 -0.214929 -0.993365 
0.162499 -0.234913 -0.991218 0.143179 -0.196632 -0.995132 0.163232 -0.224932 -0.994388 
0.151459 -0.188927 -0.971662 0.174338 -0.208316 -0.991626 0.122757 -0.197023 -0.993953 
0.169891 -0.19018 -0.972744 0.167435 -0.18626 -0.988201 0.121587 -0.180591 -0.994977 
0.15657 -0.185596 -0.990032 0.13873 -0.206485 -0.994315 0.134084 -0.212924 -0.976353 
0.174276 -0.196306 -0.987838 0.138349 -0.186296 -0.992031 0.162793 -0.196851 -0.994986 
0.179343 -0.229102 -0.989169 0.172786 -0.199798 -0.974814 0.174861 -0.18177 -0.983252 
0.152117 -0.198414 -0.990589 0.122956 -0.192564 -0.965248 0.13998 -0.193355 -0.940363 
0.141001 -0.187908 -0.979113 0.162311 -0.215086 -0.953376 0.140026 -0.204017 -0.968751 
[...]
POINT_DATA 5996
FIELD FieldData 7
id 1 5996 int
572 196 202 615 3132 1778 1832 818 987 
265 294 536 1777 1514 2027 3106 1700 454 
528 1858 773 740 3279 1555 3180 1027 3730 
1086 3321 4708 4790 429 322 1550 562 395 
1828 122 1654 1790 946 3277 3411 3422 364 
190 948 1044 115 331 3134 1553 1100 3120 
3276 930 1853 2312 3142 3082 2429 4684 4729 
4941 1641 35 17 131 328 1717 1599 1890 
1788 2010 608 2189 3230 3408 477 3403 759 
3069 1702 1903 3203 3419 2465 1128 3285 942 
1082 2460 911 1113 2373 2264 683 669 4860 
5060 37 172 3547 230 1585 1997 455 263 
1668 127 1061 3041 678 2594 34 1506 3357 
3413 1081 588 706 1020 2461 1886 1794 633 
561 788 3275 3538 4662 4793 486 2068 343 
1910 929 3440 3566 135 2050 790 1866 3325 
1730 1807 1926 842 735 830 2202 1177 5063 
1173 97 1530 3297 206 1814 108 335 1672 
1677 51 850 3009 3036 880 781 325 666 
3014 1284 3283 939 1870 956 2579 3352 2277 
3125 990 4650 4715 4792 4835 4869 1879 1957 
1925 1022 721 3409 1699 3550 2064 1524 3191 
543 3453 2123 3534 2468 4544 4566 350 287 
1617 1981 155 495 1533 1693 3234 832 646 
1723 1939 3456 856 2132 3332 2522 719 851 
3032 688 4513 4541 4864 4939 810 212 1916 
1619 26 78 1571 962 1880 618 3029 3065 
1577 1664 2067 408 991 1595 2021 786 858 
622 873 797 577 2524 1124 4593 4677 1229 
532 1800 31 423 25 2041 1660 266 107 
3079 3165 3498 1938 512 3257 3224 261 548 
463 1527 2016 3060 583 2446 2403 3004 861 
644 886 4507 4748 4762 4999 3564 16 409 
1518 3264 3342 1842 1976 2043 551 1600 1634 
817 1983 329 194 1836 3368 1696 1964 3407 
414 1822 1905 566 3307 3446 1582 3296 1574 
2445 3542 1033 575 1186 4556 4619 4880 462 
163 472 347 509 1698 726 1946 1060 3298 
3478 3427 926 3921 2398 1257 507 2052 508 
1603 3258 1826 567 80 1929 1763 1018 1945 
3217 888 885 33 1909 441 416 1543 1739 
568 2062 515 453 3181 3337 3391 3140 1927 
339 338 238 1891 428 2040 3011 3418 658 
436 1610 708 958 1131 949 2181 3073 952 
2555 841 1774 3683 2478 1032 402 912 224 
2046 458 1911 8 535 1623 170 1624 3521 
632 837 556 375 1722 855 1504 3555 3046 
821 3018 3035 2520 3450 647 1164 1437 4667 
4878 293 3220 3563 426 275 72 77 53 
47 355 1510 3085 672 1360 2528 547 801 
392 3442 3284 811 843 2165 802 4540 4706 
4933 4937 4953 4970 1114 333 518 459 546 
1754 451 123 2329 906 306 3047 1670 3107 
164 2432 925 2448 1373 4763 4851 1732 1118 
1718 685 373 1780 448 1767 232 3108 313 
792 502 3095 1716 1876 2066 1829 976 603 
977 2485 2386 4073 2577 5030 1590 141 2073 
128 401 292 358 1962 182 1531 1812 995 
680 3423 3449 256 3495 476 538 2044 1990 
840 1849 3474 655 3443 674 2227 1297 3204 
864 2430 4520 4543 4653 4722 4815 5056 379 
1852 1562 2019 286 1956 760 1007 3059 3529 
48 1932 1721 60 677 394 746 1639 1011 
2338 3401 1221 4555 4789 5054 1846 1955 1918 
3062 183 1841 285 130 337 1091 3063 3308 
76 411 151 1847 309 1068 1735 815 1073 
1071 40 3455 3008 3447 2556 2120 3023 809 
636 4717 4923 1950 1651 1900 501 892 1111 
3222 1030 4530 159 2031 70 965 3113 39 
2011 283 475 531 1628 3416 3465 1713 1864 
1975 2320 3469 3459 2133 4630 4814 4827 5011 
625 1575 702 1537 1971 1076 3133 116 1972 
1557 1705 660 704 3126 250 1534 197 1901 
1757 1123 1742 1912 3044 1576 3248 936 2289 
1056 2229 894 1036 4537 4694 4844 4846 4866 
4905 533 1612 1994 3215 3390 302 1992 389 
1689 1980 3535 10 370 1744 1117 877 1697 
1806 1572 3178 55 3268 1671 3510 1541 3367 
3505 3426 2607 921 4749 4863 5038 5049 366 
3557 484 527 330 3198 3232 3385 438 2003 
210 1804 178 3328 1057 1632 2491 918 645 
2443 972 2146 3957 4736 973 84 165 1516 
1711 3068 1588 6 3 3252 522 399 1526 
1578 1587 695 101 3290 2433 3340 1869 1724 
3552 3151 4501 4976 1859 315 64 342 277 
382 3553 3251 489 1663 3093 3375 3344 3554 
814 1709 3131 1148 2249 2875 2631 974 1149 
4554 4617 4623 4784 4810 4848 4849 1252 1012 
664 137 5 291 2055 1540 549 1520 1838 
113 216 653 838 3484 68 3343 297 525 
3077 762 2224 3055 2566 1608 1038 620 2105 
922 891 1347 1000 2206 5022 5026 5037 5061 
909 1558 3098 1647 1522 1523 967 642 471 
1825 32 2026 524 3078 1935 218 82 3158 
3560 3568 3400 1795 992 1840 3122 3097 2295 
2341 3087 766 2147 4895 1968 3110 195 260 
3137 3315 233 2004 281 311 259 251 378 
1865 3322 3157 3389 1515 1584 3444 957 1051 
2496 4062 3286 4512 4731 4907 118 94 90 
334 4 1908 1881 3146 290 126 1622 1729 
3329 675 3210 874 3145 2238 5021 564 226 
500 1591 1830 1629 422 839 682 243 272 
3211 983 933 3511 2559 789 4636 4859 1741 
1998 599 544 1746 1048 467 257 1803 1973 
144 415 1833 1904 1867 1906 1034 3243 3310 
711 964 1919 767 3301 3518 712 3236 662 
2472 3540 2166 803 4626 4672 4759 4947 1855 
521 506 1819 193 110 623 511 1077 1598 
1687 36 3003 3221 1784 418 953 3303 916 
3138 1789 3530 1003 1097 587 3454 748 2591 
2288 637 4574 5051 162 140 3477 1692 185 
530 2059 640 3392 3417 3526 357 424 1079 
717 1937 499 58 849 3402 93 368 3514 
1066 1924 3084 928 826 3051 745 681 694 
1089 2306 4509 4638 4874 4920 4929 3494 362 
252 488 267 3425 3569 353 1871 545 1064 
490 1760 734 180 1197 1961 3024 1126 3295 
1736 3326 882 752 2112 693 601 2082 3135 
1163 2542 4532 99 3019 348 346 219 1605 
1893 2058 887 514 432 1896 604 649 3353 
239 626 657 2148 3429 3010 4060 2652 248 
1652 73 1805 191 1758 696 1831 3441 12 
63 274 1047 139 1745 1102 1120 1942 1010 
1878 1035 3109 3406 1902 1625 1024 2226 2571 
4576 4666 4681 5047 889 117 1542 66 249 
2001 198 1931 181 3094 74 1644 3549 478 
371 1092 3376 857 3223 635 3072 736 3372 
755 650 667 3489 2349 3161 703 3431 3076 
2290 1436 2241 2574 4538 4817 820 304 1601 
349 457 354 1944 1224 134 3038 383 1979 
1714 1761 188 1720 1593 3497 3312 1661 1058 
3273 3170 679 1237 982 4029 4657 4924 4925 
4948 5040 308 558 673 1899 2042 303 129 
365 1892 419 768 3104 3194 3239 3348 2061 
1552 20 3173 3001 3254 3421 1726 3435 2069 
2170 905 3565 1093 3185 3475 2169 4649 4701 
4775 4957 3706 491 1759 737 2035 1817 71 
565 1648 1728 1920 580 3026 3168 3260 3448 
1936 1043 1650 3415 3539 1001 3387 1039 908 
579 2565 3708 713 1070 945 4643 4644 4796 
4799 4813 4955 1922 1986 214 376 519 1538 
234 1560 2071 468 3439 57 15 1750 749 
3049 146 2048 1511 1991 1679 1649 2051 88 
1110 435 999 539 3486 2378 652 2394 1357 
4525 4533 4624 4971 4973 5016 1637 3227 3287 
3496 1594 9 1894 1512 327 552 718 1897 
483 728 824 1008 2173 1052 2617 729 4824 
4896 1074 321 299 49 404 1943 1602 223 
1704 1706 630 3067 513 1839 114 3434 1776 
3154 1551 3002 3567 1770 1581 3485 1984 616 
947 943 1262 4877 4927 4938 4956 446 314 
1861 209 434 1638 2054 550 1567 1883 1501 
937 1787 351 1966 100 211 595 1731 186 
450 1769 3331 2049 938 1733 2023 3058 2601 
3105 641 699 2156 2380 1193 4986 136 96 
482 1685 3148 3274 125 3144 1539 555 1801 
3013 3374 1549 1863 3349 750 3016 2367 3519 
1178 819 3432 2384 4812 95 2013 278 184 
276 1103 360 520 1006 3153 104 81 1129 
1596 742 931 2201 2562 1088 2121 2490 2426 
970 3460 2322 4503 4665 4671 1782 1959 120 
340 523 244 1967 1592 1613 831 932 3201 
1561 1999 1609 3212 403 619 43 1928 793 
776 3193 2152 3229 968 3045 860 2560 778 
2294 4675 4901 4909 1382 542 1823 3112 3428 
442 2070 1712 65 44 59 480 571 397 
1683 176 1563 1766 3054 3536 363 517 496 
1917 3242 7 282 1040 3302 1656 1666 2356 
3034 3086 2567 940 2315 1028 2570 2323 3171 
2531 3096 823 1464 4528 4535 4570 1775 372 
1797 676 3265 1851 1960 613 270 763 1606 
920 3117 3370 730 592 1072 2576 3147 2404 
2600 2337 923 576 1095 3291 614 4692 4804 
2002 1792 731 3040 147 374 168 148 1884 
3116 3172 1734 2038 3311 3537 2065 986 1988 
1054 1049 950 2292 2580 870 4700 215 157 
1127 203 469 443 1783 384 1621 1532 3404 
316 569 1873 1934 590 739 1615 1657 896 
149 3152 661 3167 3282 853 3515 1231 2316 
2253 1108 2302 4552 4592 1715 1914 254 245 
1090 3056 732 3123 3369 187 3256 3386 3012 
988 1098 2388 3335 2210 1170 4658 4843 5012 
1643 1653 2000 262 69 924 2015 3089 3398 
445 596 581 2512 3263 3271 1856 2158 3377 
2340 2423 3101 689 3473 3160 656 670 4707 
4741 4777 318 464 227 3187 3509 242 192 
796 827 3492 1877 2271 836 2392 2262 1391 
878 5035 5050 3528 56 2029 3278 498 1719 
1965 179 225 29 83 3155 30 3500 2006 
3520 2037 3007 3320 2034 3128 1616 935 1611 
3470 934 38 1486 1122 3363 4572 4755 4913 
1525 1948 3174 1727 3183 228 1509 2030 361 
449 1837 1507 690 177 3039 3246 3371 978 
142 1050 996 103 1065 2545 3143 1282 2467 
2370 2140 4739 4867 5053 5067 87 45 907 
1802 430 504 3025 3048 3395 2856 3070 1923 
3200 3166 557 273 405 765 3556 1688 594 
883 3253 3354 2604 3548 686 1915 1854 1751 
3213 324 280 284 288 1573 312 310 927 
1815 3318 3360 1580 3336 1026 808 1556 3677 
1570 3249 3042 2344 2101 2376 2099 2564 1370 
3900 4629 4689 4926 1270 320 1768 1642 494 
201 1755 1949 300 1791 3206 3405 3481 771 
3501 406 643 738 153 631 1889 966 2310 
3015 1969 684 2184 1059 1019 2149 2251 2470 
24 396 237 2008 255 3244 1690 1707 3233 
899 813 4648 447 3289 231 246 1748 1793 
516 1547 112 377 1568 391 425 654 1987 
75 591 387 1952 3218 754 2012 3517 1645 
586 1069 3266 3050 2351 2318 2516 971 4652 
4943 3214 150 323 2024 1940 553 3490 3533 
154 1799 1109 829 800 3080 3558 2497 573 
671 1084 4916 1835 1105 3397 3541 804 89 
427 1691 1898 485 3410 456 3313 3467 3156 
1004 574 2481 869 774 1259 4558 4738 4798 
4888 4922 5031 5041 1620 381 3071 460 3075 
3241 787 4680 4942 452 169 1681 390 41 
1565 2022 3493 1513 461 359 665 1684 1772 
1673 1062 2057 271 1583 1874 2014 984 993 
14 413 208 1771 1682 1996 3513 444 160 
121 341 98 145 171 529 1013 3267 317 
1773 876 3571 2245 388 1921 1808 3512 961 
3516 3189 901 1888 969 3020 3259 659 3614 
848 2503 4511 4858 5005 497 563 854 174 
62 1662 28 109 1747 1857 492 1779 200 
167 386 534 1037 1067 3184 2 2231 3687 
1953 393 3006 806 844 1431 881 2575 4625 
4724 4769 4831 4881 4892 5010 5024 417 2078 
3235 433 1875 213 42 106 295 1505 2018 
1820 1708 241 960 1680 1597 1636 998 769 
3092 2519 2518 2171 4591 4735 4747 4893 5071 
367 307 3119 1982 753 890 2193 3361 3052 
481 398 1009 3341 1579 1978 11 173 156 
807 3355 1809 3175 3316 3502 4719 4743 4818 
4840 91 3033 189 1813 229 1933 319 474 
1786 1995 2063 356 296 132 298 407 3561 
510 437 1816 18 1566 3487 617 1521 2053 
3102 3299 741 2321 4542 4750 4903 4980 222 
439 105 554 1528 2036 828 221 1536 692 
1546 3293 3380 2360 1463 4561 4605 4935 1480 
199 133 54 503 269 663 3424 1618 380 
1678 1845 1989 893 3471 3836 994 1287 2365 
3381 798 578 3892 1205 4875 5029 2039 247 
1614 1752 50 1589 1701 479 1862 3099 1564 
794 668 2435 2197 3330 2020 2339 4765 4782 
111 161 1725 1844 3190 1737 345 465 466 
1554 412 1633 1559 1827 1107 431 3300 3445 
3476 124 207 1015 3262 1078 3209 3346 1947 
2440 1548 3366 2523 3169 2047 3741 1743 3127 
3451 2324 997 2391 879 4687 4816 4911 5065 
3430 1101 1529 526 537 1631 79 326 1695 
1544 639 743 1665 1675 1907 268 2494 3017 
1810 862 914 3247 2628 1503 1811 3088 1834 
895 1042 2368 2525 4876 4984 1798 236 1860 
158 1029 1630 1821 102 1930 400 258 2017 
3345 3269 610 3831 852 716 700 4610 4682 
1658 3420 868 1887 2056 1764 3205 1818 240 
235 1607 204 1868 420 1659 175 1655 3043 
2514 1781 3216 863 1025 871 1125 2526 1294 
4647 4726 1954 1977 3083 1535 593 3359 21 
23 1785 1824 279 1765 143 799 1063 3118 
3304 3480 86 1087 3188 3373 822 3466 3317 
2710 597 981 2084 1386 2333 2536 4906 1850 
52 22 1626 253 1646 46 13 344 27 
2005 166 3462 440 85 1517 904 3524 1053 
61 2007 3412 3523 2450 715 975 1640 3917 
2413 1627 2151 2293 3482 733 1031 2940 2303 
1199 4514 4616 4714 4820 4887 421 1738 1635 
727 872 780 3021 1963 3192 152 560 1895 
1762 1974 385 559 487 3031 3272 3464 3551 
3028 3199 3288 2124 756 1502 3414 1686 963 
805 1083 3479 3472 2527 2420 3973 4641 5048 
1848 1569 3053 3130 1119 761 1096 4992 725 
2613 2319 5015 2250 1016 2090 2447 4598 3364 
2259 4006 1452 4581 900 3698 1145 2529 2255 
4571 4968 1187 1409 867 3365 4631 4778 1244 
3384 264 985 4946 1913 3488 770 3570 2100 
2060 1753 589 2589 2596 2225 2419 3881 2411 
3884 585 4504 3933 1298 4505 4562 4645 5007 
3388 691 3378 4611 1253 709 2409 4038 1498 
4587 4794 605 3306 3483 3527 1106 2463 2593 
2138 3546 2501 3396 2268 898 2045 3176 4646 
4944 3261 4088 1085 4931 4951 5062 1467 1316 
602 3186 2275 1408 3659 4092 2505 4921 3066 
2088 2546 4829 3022 1151 779 4873 4894 5046 
2610 1301 1075 4961 4981 1215 332 609 3323 
3393 4053 785 4515 4516 5058 1264 2074 687 
4640 4998 5032 2179 1448 473 540 4618 3382 
3525 3196 2408 2345 1477 2182 2495 2469 1694 
4699 4967 954 2136 772 3074 701 4691 4850 
4902 4918 5068 67 352 2355 3030 2608 1269 
2363 410 2449 3664 4703 4899 2032 634 1331 
1143 4710 4801 138 2028 1796 1168 2102 1441 
5020 5070 1152 3091 582 1121 2623 2535 4536 
2211 1099 4711 1415 2568 2328 3195 955 757 
1317 4612 1208 5014 2178 220 369 1223 4987 
3090 2629 3027 2280 1403 2511 4545 4776 5057 
5072 1230 3457 1116 2444 4678 4993 1132 1669 
4745 505 1545 3163 3141 5064 1456 1749 3562 
2547 3645 4130 1154 4083 4609 1394 1419 336 
4079 2489 3545 1165 4919 1212 1604 2487 4042 
2620 3499 1146 1958 866 3544 897 2402 2507 
4977 5036 1201 1970 2139 2549 2492 825 3913 
2499 4660 2437 3240 2498 2205 2204 4521 4974 
1245 2311 2145 2563 1046 3314 3362 1278 1332 
1676 1703 919 4663 4728 3197 1993 944 627 
3111 3100 2441 1002 2287 3623 1112 2585 1176 
3988 4740 1430 1508 3433 4526 720 744 1104 
1080 1423 4958 833 1985 3226 2438 1309 1377 
1275 4772 3379 2595 1115 959 859 4985 1481 
621 119 3808 1219 2480 1304 1392 1416 3532 
3559 3103 3347 782 3294 1094 4821 1411 3436 
2313 979 3969 2125 4668 4832 5018 1207 3338 
3219 2111 2119 3828 2410 3993 4112 4857 4990 
5008 5391 3468 4569 4786 3927 783 3461 3292 
3649 2126 2534 3593 3309 3207 4549 4578 4583 
4656 2393 1303 2942 3136 2586 980 4855 846 
3280 2573 2095 600 5023 747 1951 1667 1014 
3399 3139 3334 2364 1041 2626 2354 4917 1192 
1280 1137 2122 2464 835 3255 3893 1321 1247 
1882 1005 2383 1 2009 3250 2515 913 2113 
1023 3572 2327 707 4586 4589 4613 5034 3177 
2072 724 3333 3636 2592 2144 4853 4861 3755 
2615 2584 4834 607 1941 3231 2396 2342 1405 
1402 493 2451 3208 1519 2331 2270 2992 4114 
2155 875 570 1674 3245 3037 2157 4502 1710 
697 784 638 3383 2484 1358 2459 2305 3281 
1740 3305 884 2428 2369 1222 3804 3887 2180 
2131 1586 705 3452 3598 2572 3437 3324 3844 
2256 4015 2434 1491 4697 2457 1447 5167 2187 
2803 4879 2611 2104 1395 2239 4120 4721 4783 
4791 3694 3438 648 4621 4837 4959 2508 4550 
4676 5045 1265 1202 2347 2548 624 3882 2199 
2214 4651 4737 1497 2456 1299 3679 4897 4690 
3064 3114 3202 3504 4725 4898 3832 2358 1363 
2233 4930 2618 2129 1450 1232 1387 3162 3582 
2301 4077 1261 3637 4510 4936 2307 1340 1341 
2033 3121 2130 4912 5009 3952 2216 764 3774 
2304 2557 1366 845 1130 1228 305 3746 4685 
2115 4712 5069 3898 4529 4991 3358 3057 4664 
4730 4779 4868 4908 2385 1295 1134 1271 5073 
2098 5212 3270 4969 2089 2257 758 3919 4808 
3846 3883 3670 4099 1153 2506 628 4584 4989 
2477 2372 915 3885 2691 3159 4723 4785 4982 
1185 1300 2539 3179 2558 4551 4655 4826 834 
2127 2599 3575 2581 1204 847 2417 2218 2343 
4696 4698 4965 3777 1336 2421 2134 2502 2950 
3627 3878 4949 4972 1266 3507 777 3936 1260 
4596 4945 1191 3998 2389 1417 4579 3700 2198 
2614 2431 2325 1429 2688 3228 3339 2232 470 
1017 2297 2362 3503 4603 4622 1240 217 3531 
2530 3595 4688 1236 2330 1157 1460 3720 2208 
3733 92 2582 1444 4026 791 1335 629 2274 
4661 4932 2504 2317 4560 2142 2272 1206 1414 
4886 5044 3600 4524 4594 4734 4966 5042 3522 
3709 3594 4695 4766 2554 1410 1438 2587 2086 
1190 2590 1162 1055 651 4996 5028 2107 3725 
2212 2117 1872 3238 3787 3543 1171 2517 2553 
3819 4608 4654 2621 1435 1138 1233 4595 4720 
4883 4890 1385 2616 2094 3576 4842 1351 2980 
3463 4602 2551 1451 2479 3506 3356 2192 4822 
1381 3596 1144 3458 584 951 3124 3628 4709 
4757 2285 1500 4033 3394 3652 4825 4828 3872 
3822 4686 4034 1156 2279 4637 1330 541 3150 
2309 4771 5003 1465 3351 2235 2513 4838 2439 
2583 4760 4823 2177 3934 4064 714 2424 4952 
1368 3005 3987 3794 5055 3081 3327 3508 4604 
4904 3182 3587 4742 2083 4727 4839 1361 2782 
1272 2195 4754 4891 4071 1210 1333 2350 1234 
3738 5341 2300 4633 4830 3916 2267 3835 2578 
1489 2188 4074 723 2627 4693 1428 1345 4546 
3958 4534 4642 4800 2700 1021 3735 4940 4983 
4988 3953 2848 2597 4097 2172 4811 4854 4871 
3802 2552 2541 2114 2802 2087 1273 2979 4788 
4915 4979 2375 2624 2427 2168 2162 1324 4597 
1469 1246 1239 3773 4627 2630 4900 4910 2221 
2353 5370 989 4118 3860 1453 4964 2665 3778 
3982 4517 4527 1256 2405 4025 4758 4774 4809 
917 2282 2186 2247 2622 2278 3856 4072 3929 
1161 1479 3951 4045 1492 1425 3681 1461 1241 
4104 4819 3837 5309 2093 2609 4506 4753 3620 
3661 2346 4683 4780 2493 1434 2569 3825 3737 
3715 2081 1306 3675 4559 4995 4111 3810 2203 
2217 2244 3164 3997 1277 4620 5303 812 3909 
3695 2223 3611 2243 2296 1160 2237 3790 3753 
4607 2252 2602 3789 2606 3573 1432 2861 1499 
2673 2190 4585 1286 1150 611 2357 5017 3923 
4110 1342 4614 4639 1172 4100 2550 4606 4635 
4950 2308 1484 1490 2160 3763 4865 2466 1376 
19 3986 1384 1494 2908 4679 2335 4020 3830 
1495 1188 2387 1418 3697 2298 4531 4565 4704 
4761 3702 2425 2143 4841 5000 2412 598 2462 
2246 2076 4539 1364 1166 1139 3663 2258 2261 
5006 5144 1279 1141 2379 4059 3983 2266 3995 
4601 4856 1291 3834 2183 1225 1459 3115 2110 
1427 1412 3129 3876 3722 3604 1289 4009 1312 
2348 3606 3718 3994 2273 4019 4787 3601 2116 
2538 1292 3896 795 3912 1443 1493 3625 2176 
4564 1220 4567 4882 5001 1476 3750 2079 3622 
1184 2381 2414 1327 4599 4852 4889 2540 3940 
1268 3911 2473 2850 4600 5199 2374 4069 1350 
3061 4705 4733 4870 5027 2588 3225 4963 4845 
3602 1209 1238 4732 2154 4836 2248 1474 4519 
5052 4095 3736 3491 3149 4994 2269 1045 1198 
2829 3937 1399 2230 2135 3641 4746 2359 3319 
1290 2544 3827 1406 4978 2880 2453 5278 1496 
4833 2106 2141 4975 2482 3701 1422 3646 4553 
4575 4702 3658 910 4121 5473 2025 4508 4806 
1203 3980 3769 4767 2220 3667 2784 2537 4847 
4862 1365 1374 5190 2096 4127 5565 4087 1179 
3632 1458 4673 2194 3759 3888 2283 2118 4768 
4032 3944 2422 1214 3866 5419 1454 2075 1369 
1355 2912 3752 865 1359 3979 2401 4934 2543 
2905 4523 4756 5043 5517 2510 1446 3657 1462 
2999 4615 1455 4098 4659 5354 1182 3904 3908 
3580 2415 2382 3619 1344 2406 4049 4960 3817 
3689 3946 3760 2196 2276 1136 3960 1174 4557 
4884 3655 2532 2109 2612 3740 4914 5353 3696 
3877 2407 2164 5524 2361 3840 4089 2240 4043 
2263 2103 5369 3784 4013 2175 4744 1318 2215 
4752 4052 1353 5414 5025 3751 1183 4131 3237 
4764 4803 3897 2377 3926 4518 2366 1328 4670 
1400 2692 5002 3816 3968 2458 3665 2108 2455 
1843 2163 5232 2521 2299 4577 4674 3693 3724 
3616 1337 5405 2868 4547 2397 5117 5033 4016 
3770 4928 3717 2219 5559 4797 4057 3847 5099 
2228 4773 5013 2207 2291 2436 3996 2454 1398 
5170 2452 1334 5602 4807 3868 2476 5229 4522 
3650 2128 3764 1159 2740 1473 2399 2161 2091 
2960 4802 5019 2281 1440 3610 3608 2209 3643 
3989 2159 1475 3829 1320 1213 2938 4101 3815 
4091 1315 2334 4997 2150 5484 3783 2097 1338 
2092 3690 3671 4075 1397 5279 4041 4070 1310 
1243 2416 1227 4795 1217 289 4716 5039 5306 
3850 1471 1756 5066 2314 4573 4781 3648 2326 
2137 1283 2619 1263 2603 1445 2213 1367 2352 
4122 3841 902 4582 4634 1169 4094 2488 4770 
5289 4002 3656 4568 2242 2400 5275 4563 4751 
4962 5421 5111 1362 3682 3743 3902 2935 3703 
1383 3581 3928 2085 2174 2820 5406 775 5251 
4117 4872 5004 4061 2167 3941 3972 3767 5137 
4051 5404 2753 5607 3669 1325 3886 3742 5160 
1196 5157 3692 5452 2885 2866 5520 2697 5618 
1274 1483 3000 4004 3642 2806 3976 2966 1375 
4047 2887 3966 2918 5416 2395 2336 3714 2474 
2475 5563 2655 3991 5439 2789 3965 1258 5424 
5575 3990 3699 4011 5361 5627 3674 3859 4885 
5387 5612 2689 5594 3713 5444 3812 5553 5476 
2200 5455 2442 4580 5097 2794 4010 5193 1135 
5529 2941 5095 3592 4084 3711 2957 2930 2871 
2921 5430 5454 3653 4003 5587 2731 4588 2390 
3922 1388 2891 2651 1326 3848 3839 4031 4081 
4628 5598 5628 3615 3843 3901 5059 4669 5087 
5098 1288 1249 3977 4954 5100 4017 3873 1472 
2679 3744 1433 2760 2741 2633 2483 2286 5572 
5156 2931 1352 4065 3786 2658 2236 4103 5336 
5514 3732 2653 5266 2605 1242 3858 5258 3838 