# vtk DataFile Version 4.0
Generated by LIGGGHTS
ASCII
DATASET POLYDATA
POINTS 8995 float
-0.133122 -0.262902 -0.994724 -0.15689 -0.243801 -0.995031 -0.120806 -0.242453 -0.995102 
-0.12035 -0.254038 -0.994934 -0.124801 -0.266504 -0.989622 -0.14276 -0.255557 -0.995013 
-0.166819 -0.242355 -0.994937 -0.130232 -0.2403 -0.983798 -0.144502 -0.245199 -0.995005 
-0.159067 -0.246718 -0.985755 -0.144118 -0.245435 -0.985106 -0.147687 -0.244973 -0.975678 
-0.152232 -0.252469 -0.992558 -0.128903 -0.259161 -0.977031 -0.121717 -0.249967 -0.968026 
-0.111638 -0.269785 -0.983732 -0.116444 -0.270056 -0.993781 -0.110764 -0.2593 -0.955516 
-0.0881267 -0.273533 -0.978397 -0.0838228 -0.282883 -0.982301 -0.0812236 -0.268468 -0.995053 
-0.0701066 -0.254089 -0.995003 -0.0923998 -0.262157 -0.987301 -0.0708791 -0.28599 -0.995015 
-0.107595 -0.262485 -0.994212 -0.0814155 -0.243281 -0.995005 -0.0806621 -0.281949 -0.994941 
-0.0746712 -0.277067 -0.980005 -0.102527 -0.274964 -0.986206 -0.0906076 -0.280762 -0.994991 
-0.0697857 -0.262627 -0.979144 -0.0740677 -0.285505 -0.985636 -0.097819 -0.273663 -0.995078 
-0.107706 -0.274671 -0.994945 -0.0628426 -0.278657 -0.994982 -0.0936047 -0.279539 -0.985523 
-0.0994978 -0.242865 -0.981342 -0.0721596 -0.275152 -0.995162 -0.0669983 -0.240528 -0.990599 
-0.0626113 -0.268664 -0.994919 -0.100762 -0.250663 -0.99464 -0.0988833 -0.240399 -0.994931 
-0.0908118 -0.247736 -0.994882 -0.0808733 -0.254839 -0.994825 -0.061273 -0.288519 -0.994828 
-0.0631113 -0.267741 -0.984918 -0.0841641 -0.274659 -0.987875 -0.111015 -0.252859 -0.983259 
-0.0638813 -0.288035 -0.984377 -0.0873675 -0.24983 -0.978478 -0.0729867 -0.269746 -0.986899 
-0.0913687 -0.240372 -0.986861 -0.0638257 -0.268612 -0.956176 -0.0934815 -0.243429 -0.970593 
-0.0768032 -0.260417 -0.986787 -0.0721769 -0.263833 -0.994932 -0.0605802 -0.257079 -0.99448 
-0.0642647 -0.247138 -0.976404 -0.0698774 -0.28663 -0.976005 -0.0773672 -0.250583 -0.985357 
-0.0851756 -0.243283 -0.964991 -0.115192 -0.268363 -0.961569 -0.09746 -0.263729 -0.967593 
-0.0991017 -0.271434 -0.95422 -0.104386 -0.27456 -0.976423 -0.0752626 -0.266086 -0.968806 
-0.109492 -0.25296 -0.946681 -0.0797329 -0.268028 -0.979716 -0.0772139 -0.25637 -0.961841 
-0.104423 -0.241828 -0.965703 -0.0718272 -0.277498 -0.97022 -0.0645479 -0.268627 -0.968348 
-0.0240794 -0.282186 -0.987763 -0.0427448 -0.281986 -0.995027 -0.0582671 -0.247365 -0.994938 
-0.0528494 -0.282928 -0.99445 -0.0371698 -0.292663 -0.994425 -0.0273583 -0.290867 -0.994844 
-0.0132604 -0.294771 -0.995047 -0.00636358 -0.263255 -0.995003 -0.0268463 -0.2638 -0.994897 
-0.0373866 -0.262135 -0.994761 -0.04538 -0.267153 -0.991108 -0.00808038 -0.264253 -0.985233 
-0.0370212 -0.265855 -0.985475 -0.0381216 -0.27276 -0.995011 -0.00603149 -0.276899 -0.995023 
-0.0224031 -0.254453 -0.995011 -0.00738838 -0.286766 -0.994989 -0.0329427 -0.2827 -0.992523 
-0.052636 -0.272908 -0.994792 -0.0471667 -0.291197 -0.994909 -0.0140659 -0.281495 -0.987414 
-0.016501 -0.263169 -0.994891 -0.0184867 -0.286282 -0.994942 -0.046591 -0.257548 -0.994969 
-0.0184052 -0.292433 -0.986864 -0.0599002 -0.264467 -0.976085 -0.054865 -0.264189 -0.990057 
-0.0274542 -0.271985 -0.979947 -0.0324546 -0.25343 -0.994805 -0.0397083 -0.246715 -0.993114 
-0.0150942 -0.271898 -0.980033 -0.0472182 -0.258804 -0.984701 -0.00946435 -0.249504 -0.988994 
-0.0311288 -0.241882 -0.994963 -0.0531039 -0.277622 -0.979714 -0.0405942 -0.287379 -0.986524 
-0.00581629 -0.294735 -0.988048 -0.0286424 -0.273262 -0.991048 -0.0200875 -0.276439 -0.995017 
-0.0175755 -0.287815 -0.972678 -0.028468 -0.292005 -0.984983 -0.0210624 -0.266845 -0.986297 
-0.0598203 -0.289 -0.972933 -0.0377795 -0.289881 -0.977284 -0.0360558 -0.250471 -0.981755 
-0.0288604 -0.259687 -0.985708 -0.00353853 -0.289725 -0.9681 -0.0128951 -0.271721 -0.989894 
-0.0384512 -0.276241 -0.985614 -0.0294511 -0.273219 -0.95823 -0.000233034 -0.276604 -0.976307 
-0.00467147 -0.279082 -0.985121 -0.0322024 -0.283222 -0.982065 -0.00922526 -0.273916 -0.969793 
-0.00560564 -0.262549 -0.975718 -0.0181103 -0.248935 -0.961876 -0.0245784 -0.248085 -0.979066 
-0.024086 -0.24574 -0.988828 -0.0185914 -0.257925 -0.977599 -0.000794243 -0.243676 -0.938689 
-0.00109544 -0.286294 -0.978705 -0.0142021 -0.265204 -0.969318 -0.048355 -0.260645 -0.973108 
-0.0378885 -0.251728 -0.9657 -0.0583617 -0.257455 -0.951196 -0.00822373 -0.258534 -0.965779 
-0.0345758 -0.281719 -0.967321 -0.0159381 -0.247165 -0.972666 0.00164495 -0.294957 -0.995014 
0.0155496 -0.294662 -0.991837 0.00102846 -0.269863 -0.994512 0.00888372 -0.288015 -0.995067 
0.00385771 -0.279378 -0.995054 0.0229727 -0.287804 -0.98078 0.021842 -0.276252 -0.995024 
0.0436486 -0.260561 -0.995002 0.0384525 -0.2679 -0.986317 0.0387128 -0.283555 -0.99501 
0.0287223 -0.284521 -0.995023 0.0129442 -0.271002 -0.995017 0.0133543 -0.261072 -0.99505 
0.00487286 -0.276213 -0.984892 0.0346181 -0.264844 -0.995018 0.0425197 -0.272647 -0.995023 
0.045143 -0.291504 -0.995016 0.0494918 -0.280299 -0.994993 0.036291 -0.277779 -0.985987 
0.0351618 -0.292897 -0.995029 0.0323886 -0.274657 -0.994643 0.0578249 -0.264326 -0.98597 
0.00807459 -0.251471 -0.994464 0.00313371 -0.260127 -0.994124 0.0284385 -0.264455 -0.986333 
0.0513512 -0.267384 -0.994806 0.0177112 -0.2665 -0.987234 0.0275263 -0.257198 -0.995027 
0.0187709 -0.285804 -0.995027 0.0266607 -0.274233 -0.986451 0.0109357 -0.249249 -0.976558 
0.0249988 -0.293853 -0.99491 0.0239017 -0.266471 -0.995043 0.0554935 -0.288921 -0.994968 
0.0567464 -0.288712 -0.98463 0.0410967 -0.282964 -0.978693 0.0340267 -0.25623 -0.987126 
0.0423035 -0.250389 -0.994812 0.0141148 -0.274071 -0.981766 0.0143367 -0.243342 -0.995037 
0.018296 -0.252496 -0.994844 0.0257656 -0.249238 -0.989088 0.00874535 -0.291188 -0.985457 
0.0462055 -0.275342 -0.986109 0.0557332 -0.274966 -0.989179 0.0126508 -0.279654 -0.990118 
0.0517108 -0.253851 -0.994626 0.0370026 -0.288213 -0.986328 0.00528235 -0.255455 -0.985317 
0.0217412 -0.276289 -0.969267 0.000659714 -0.286679 -0.989123 0.0509226 -0.243733 -0.995045 
0.0330147 -0.246385 -0.995156 0.0546321 -0.254947 -0.984601 0.0218735 -0.25753 -0.982951 
0.02264 -0.243107 -0.98184 0.0336011 -0.246671 -0.983655 0.0366115 -0.292563 -0.976055 
0.00726109 -0.266292 -0.987203 0.0366031 -0.262843 -0.977724 0.0331808 -0.272153 -0.978221 
0.00534639 -0.294175 -0.976532 0.0466553 -0.285513 -0.986825 0.0379246 -0.278044 -0.970364 
0.048864 -0.266101 -0.981526 0.0574693 -0.243465 -0.986385 0.0545391 -0.274433 -0.959791 
0.0474512 -0.246395 -0.985884 0.0160353 -0.268194 -0.9727 0.0054695 -0.245514 -0.986788 
0.0145592 -0.250641 -0.985809 0.024137 -0.241548 -0.995077 0.056437 -0.245906 -0.976883 
0.0517482 -0.24388 -0.943947 0.0086888 -0.294933 -0.967072 0.0572023 -0.270679 -0.977747 
0.048271 -0.251488 -0.977323 0.0298634 -0.283124 -0.964961 0.0449357 -0.265944 -0.967427 
0.0104539 -0.26023 -0.976229 0.0465373 -0.286484 -0.965806 0.00310676 -0.246624 -0.947808 
0.0187331 -0.293273 -0.958836 0.0547698 -0.280104 -0.980164 0.0471711 -0.290882 -0.978364 
0.0555651 -0.261122 -0.973839 0.0207078 -0.272099 -0.940516 0.0447299 -0.274132 -0.949791 
0.00163011 -0.243609 -0.964011 0.0365864 -0.24712 -0.969088 0.0641579 -0.241789 -0.994754 
0.0624069 -0.267968 -0.99462 0.0680857 -0.26158 -0.973182 0.0670056 -0.26793 -0.983256 
0.0773881 -0.269465 -0.994991 0.0827954 -0.278406 -0.994756 0.116836 -0.270809 -0.994949 
0.112982 -0.26387 -0.987955 0.0927168 -0.280014 -0.994554 0.0969668 -0.265698 -0.995025 
0.104295 -0.252254 -0.97782 0.0719838 -0.260922 -0.994907 0.0838664 -0.259292 -0.99501 
0.117564 -0.248443 -0.989158 0.0740871 -0.259879 -0.960376 0.101975 -0.27615 -0.994956 
0.0691983 -0.28147 -0.989315 0.102077 -0.259328 -0.989247 0.0971374 -0.262328 -0.980499 
0.082109 -0.247588 -0.977012 0.0848829 -0.271504 -0.980447 0.0957133 -0.251461 -0.985307 
0.0742528 -0.242019 -0.994586 0.10683 -0.267248 -0.995028 0.0617976 -0.25378 -0.994465 
0.0985419 -0.270947 -0.986685 0.0707381 -0.250685 -0.991091 0.0875458 -0.269587 -0.995041 
0.0848258 -0.243514 -0.995041 0.104283 -0.25158 -0.995119 0.0870098 -0.244584 -0.985169 
0.0779176 -0.284499 -0.977474 0.0811432 -0.251185 -0.989796 0.0942352 -0.253244 -0.995034 
0.0748212 -0.243151 -0.984426 0.0911887 -0.260235 -0.988254 0.0753121 -0.256127 -0.983237 
0.0912339 -0.255052 -0.975139 0.108481 -0.274316 -0.987522 0.0990755 -0.277856 -0.97949 
0.0896264 -0.258976 -0.960692 0.116219 -0.270661 -0.980778 0.116041 -0.246137 -0.966018 
0.101388 -0.27412 -0.970411 0.0631676 -0.245064 -0.969823 0.104951 -0.240072 -0.97561 
0.0636306 -0.25228 -0.962613 0.0669197 -0.246919 -0.979652 0.107469 -0.240722 -0.964858 
0.0661645 -0.258541 -0.986809 0.0658928 -0.286725 -0.971779 0.0664079 -0.274655 -0.942649 
0.117484 -0.240352 -0.955753 0.122298 -0.265586 -0.97222 0.120357 -0.249355 -0.97438 
0.133027 -0.260922 -0.970794 0.123442 -0.268015 -0.987868 0.121209 -0.261557 -0.994967 
0.138946 -0.260191 -0.984617 0.159473 -0.24786 -0.995011 0.140105 -0.258487 -0.994681 
0.15087 -0.253359 -0.995004 0.131592 -0.250111 -0.99501 0.131669 -0.263873 -0.995006 
0.152312 -0.246592 -0.981264 0.149808 -0.241254 -0.99503 0.136336 -0.250754 -0.982288 
0.14827 -0.255025 -0.962019 0.130112 -0.256556 -0.987504 0.141513 -0.248418 -0.992963 
0.143404 -0.256922 -0.974752 0.120224 -0.261101 -0.981292 0.130487 -0.264581 -0.981591 
0.128076 -0.25531 -0.977266 0.127896 -0.241037 -0.978982 0.135617 -0.241488 -0.985877 
0.12881 -0.240176 -0.994992 0.167906 -0.242445 -0.995008 0.134103 -0.248319 -0.972535 
0.166042 -0.243205 -0.959047 0.134778 -0.251257 -0.962848 0.158712 -0.248526 -0.964541 
0.125197 -0.243494 -0.960531 0.133831 -0.261984 -0.959596 0.158275 -0.249015 -0.952758 
0.132076 -0.248373 -0.949258 0.124595 -0.258927 -0.965086 -0.228674 -0.186519 -0.995054 
-0.183715 -0.191408 -0.994788 -0.218747 -0.186121 -0.995042 -0.206748 -0.210399 -0.995066 
-0.193092 -0.222395 -0.994986 -0.224391 -0.190906 -0.987051 -0.182346 -0.232017 -0.986295 
[...]
POINT_DATA 8995
FIELD FieldData 7
id 1 8995 int
196 202 818 880 4791 6203 1778 3009 5015 
3769 2447 6131 2528 5080 1196 3132 572 1832 
265 294 536 1777 1514 2027 3106 454 528 
1858 773 740 1555 1027 3730 1086 3321 4708 
4790 115 1853 3142 1022 2064 3453 1981 2250 
4598 1452 585 3933 2434 1491 1202 1333 1234 
6332 6336 3422 4513 4071 4645 3438 1428 4508 
2769 4806 3812 2721 3637 3766 5398 5115 7900 
3279 429 322 1550 562 395 1828 122 1654 
1790 3277 364 190 948 1044 331 3134 1553 
1100 3120 3276 930 2312 3082 4684 4729 4941 
2010 350 155 688 4939 3029 164 2090 3364 
2259 900 3698 1145 4697 4837 5045 2195 2350 
2700 2220 2784 6224 1113 669 4581 2060 4959 
6403 3357 4891 4862 2203 4559 2474 2134 5271 
2639 6415 6536 4452 7912 946 3411 2429 1641 
35 17 131 328 1717 1599 1890 1788 608 
2189 3230 3408 477 3403 759 3069 1903 3203 
3419 2465 1128 3285 1082 2460 911 2264 683 
4860 5060 37 172 706 1571 1577 1595 2021 
797 4677 4006 2255 4571 4968 1187 3365 4562 
1215 2187 4879 2548 2199 3952 3846 3738 5341 
2300 2578 4847 1365 6126 6358 6517 455 3735 
4127 101 212 2848 2597 3944 4032 1702 3982 
2299 4767 5530 5441 3000 3712 2873 6466 3782 
2913 5091 5404 2839 7507 942 1997 4631 3916 
3547 1585 263 1668 127 3041 678 2594 34 
1506 3413 1081 588 1020 2461 4793 25 2041 
3498 3224 2016 4748 1409 1244 2409 1498 3396 
2611 1489 2114 1374 4087 6068 6091 6132 6414 
2552 2979 4097 6124 3669 4768 5355 3953 4028 
2674 5137 2786 2772 2463 2214 2676 230 1886 
1794 561 788 3275 3538 4662 1518 551 867 
4778 3384 1106 2267 2168 1454 1355 4619 532 
4999 1634 709 6516 6226 5281 2260 4870 1179 
7006 7602 486 2068 343 1910 929 3440 3566 
2050 790 1866 1730 1926 842 735 830 2202 
1173 3181 436 264 4946 2045 4646 2104 2239 
3832 1363 1271 4074 2081 3632 3742 6143 6481 
135 2123 985 1467 1395 885 4627 2630 2918 
3886 1375 6194 1203 3759 3966 1342 6086 6207 
3820 7584 7898 615 3980 987 3325 1807 1530 
3297 206 1814 108 335 1672 1677 51 850 
3036 781 325 666 3014 1284 939 1870 956 
2579 4650 4792 4869 3409 912 837 855 1164 
1437 4878 4953 1724 725 2613 2319 1913 3488 
2100 589 4951 2505 4120 1361 4693 4118 4934 
6392 6469 97 4706 2866 3450 6172 4061 3694 
4673 6097 6353 2719 3328 2689 5455 2660 3875 
2635 3840 3959 2889 6118 5145 2951 3978 2732 
4434 3578 5543 7563 7974 8019 1699 2537 2089 
1700 3283 3352 990 4835 1957 1925 721 1524 
3191 543 3534 4544 1533 3234 1939 856 3032 
4864 535 1623 72 1510 672 392 333 1016 
3570 2225 3881 2411 3884 1408 4921 3844 2256 
4783 4868 4546 4964 2885 6197 6383 6449 832 
2665 293 53 4696 5167 4839 3180 2419 4727 
4642 3908 2167 6007 2764 3710 6282 3781 2361 
5452 3680 5143 6393 4209 7505 7658 8059 5486 
4715 2596 1298 2373 287 1617 495 1693 646 
1723 3456 2132 3332 2522 851 4541 2067 275 
802 459 2432 925 2448 4851 685 3108 1516 
2529 1753 2589 4504 4505 5007 1253 2546 2508 
1261 1210 1021 4811 2096 2283 2697 6121 6253 
6485 6502 6559 2524 4593 2485 3066 648 1265 
1272 426 518 484 1588 810 3131 2999 2347 
2244 2240 6408 5059 5464 1328 5357 6561 7893 
7897 4936 2753 1916 26 78 962 1880 618 
3065 1664 408 991 786 858 622 873 577 
1124 261 583 2329 1732 1718 1876 4520 691 
3378 4611 4873 2457 4621 4510 4940 4983 4527 
1214 3866 5419 1483 6271 6454 128 1711 1619 
1118 373 1716 3068 779 1301 4981 3670 5565 
6228 6077 2859 4077 4080 6201 3164 2336 6008 
3726 2715 3775 4480 3835 2162 1075 1800 31 
423 1660 266 107 3079 3165 512 3257 548 
463 2403 3004 644 886 4507 1780 2073 292 
182 1990 4815 1252 4038 4794 2138 2268 1447 
624 3882 4651 3802 2541 2622 2075 2806 3991 
6029 4710 3784 2386 2186 6265 6484 2475 4004 
3642 2824 1484 5563 2222 3714 6080 3975 2828 
2771 4035 6638 5378 5225 6501 4339 5471 7530 
7583 7932 1061 3060 538 1340 2802 4045 1938 
1527 861 3564 16 409 3342 1842 1976 1600 
1983 329 1964 3407 414 1905 1582 3296 1574 
3542 1033 1186 4880 926 5054 4587 3306 3483 
3527 2593 3546 2501 3393 4053 2535 1497 2456 
4854 2087 4597 1469 1246 865 2382 2406 2789 
6017 2826 726 1461 809 4737 4754 3754 4633 
2835 6352 6152 2855 2509 6193 6313 6048 6491 
2857 3673 7637 7653 7781 8005 2188 3264 2043 
194 566 3307 575 4556 462 163 472 347 
509 1698 1946 3298 3478 3427 3921 2398 1955 
3062 309 3008 636 605 898 540 1299 3679 
4897 1366 3746 4915 2375 2624 2427 6119 6164 
1846 2304 3752 3976 6482 3818 2843 6259 6055 
6892 2936 507 2052 508 3258 1826 80 1929 
1763 1018 3217 888 453 3465 4944 4898 4753 
6006 159 1036 5370 3979 2612 6034 6378 2752 
521 6083 5340 7665 5063 339 2276 2966 1177 
2277 33 1909 441 1739 568 2062 515 3337 
3391 3140 338 238 1891 428 2040 3011 3418 
658 1610 958 1131 949 2181 3073 952 2555 
841 1774 3683 8 170 375 3018 250 4866 
3176 1694 4699 701 4691 4690 3064 3114 3202 
3504 2358 3358 4730 2782 2627 4910 2221 2353 
989 2609 2346 3715 6421 2883 1911 3261 6412 
4529 1453 3877 418 4930 6183 6570 5416 6155 
2693 4113 3870 1353 1133 2973 6535 7997 2520 
1134 1345 3125 1543 708 1032 402 224 2046 
458 1624 632 556 1504 3555 3046 821 647 
4667 801 389 4749 5049 1804 3957 4088 1085 
4931 5062 1316 3659 4850 67 3030 2608 1269 
2363 4678 4721 2233 1450 5073 2257 723 2543 
5517 1462 6179 6190 6401 6496 6500 1722 906 
1587 6134 3035 47 1980 3510 3367 5038 3557 
3385 2510 1458 2887 6550 2905 2306 3692 2118 
5343 3942 7515 4540 1754 1360 2468 3220 3563 
355 3085 547 3284 843 2165 4937 4970 306 
366 210 3290 3552 3151 2275 4092 2088 352 
4976 527 330 3340 2511 2194 3972 1879 602 
3958 6003 3985 2919 2694 6252 6032 3588 3864 
5503 7655 7907 7928 7973 7989 546 451 6527 
1274 3232 438 811 4933 1114 1670 4763 3252 
522 695 1869 4623 2610 4703 3457 3582 2569 
5030 4829 5046 4550 2148 3664 6541 734 1197 
6229 3672 5354 4089 5157 6191 4111 6257 3707 
3100 1438 6053 6569 6146 3803 6015 1885 4068 
4024 5450 5277 7642 7746 8025 6199 3550 3107 
448 792 2066 976 977 2577 6 2433 4554 
4617 4894 634 4676 3919 2421 4517 3810 1369 
3580 6156 6554 2055 3 1151 2422 2449 4988 
6161 6116 6281 6348 2335 5179 5294 4119 5533 
2670 5474 5261 2932 3423 4762 313 502 3095 
1829 603 1590 141 401 358 1962 995 3449 
256 3495 476 2044 840 1849 3474 655 3443 
674 2227 3204 864 2430 4543 4653 3059 4810 
549 653 762 3055 1347 3022 4961 785 4515 
4899 1143 5020 1341 2033 5009 2216 4871 1256 
4025 917 2282 1277 812 2912 1182 1344 2655 
6298 6417 286 3774 4072 6405 4774 2941 4830 
4659 2028 5121 6038 4116 2952 2832 2708 3678 
4449 7532 7572 7589 633 3368 1264 2278 3951 
1359 4979 817 1836 1696 1822 3446 2445 1060 
1531 1812 1297 4722 5056 379 1852 2019 1956 
760 1007 3529 1932 60 677 746 1639 1011 
3401 1221 4555 4789 3251 909 3098 967 82 
2341 281 1865 332 3323 4516 5058 2130 4788 
3929 1425 2237 2415 4049 6168 6416 6430 3856 
3078 4731 1161 1494 3689 3965 3681 4003 6437 
2286 3507 4178 5607 5439 5424 5529 3607 6413 
2685 2803 5623 7511 7699 7862 7878 8051 2338 
285 4923 992 4536 2215 1257 1918 183 1841 
1091 3063 151 1847 1068 1735 815 1073 1071 
40 3455 3447 2556 3023 4717 1651 1900 501 
1030 4530 3389 957 2074 687 4998 2179 1448 
473 4612 1130 1324 1479 3753 3986 2387 2379 
4960 1318 6317 76 892 1872 195 4640 845 
4989 3760 6511 6369 3946 4011 5627 3674 4084 
2723 6646 4885 5095 1200 2638 2671 6321 5599 
4128 3676 2795 6565 2827 2332 7809 8053 337 
6196 1950 3222 118 3146 1729 4618 2328 955 
1317 2557 4685 4785 1185 2731 130 3308 260 
3195 6114 2120 1111 3990 4744 6066 744 305 
2796 1603 1945 4712 2031 70 965 3113 39 
283 531 1628 1713 1864 2320 3469 2133 4630 
4814 5011 1575 1076 1056 1629 3525 3196 2408 
1477 4967 4725 5069 3898 3773 5309 1136 3960 
4884 567 1975 1174 5405 6304 6339 1314 6052 
2720 5387 3644 2823 1307 2746 3889 2990 6269 
2761 7513 416 4664 5025 2011 1971 3382 2345 
2115 2093 1927 4827 625 702 1537 3133 116 
1972 1557 1705 660 704 3126 1534 197 1901 
1757 1123 1912 3044 1576 3248 936 894 4537 
4694 4844 4846 4905 1572 55 3268 2607 921 
144 193 1077 2182 772 5072 3575 4900 3778 
3837 2493 2532 3740 6198 6266 6400 3521 4863 
662 369 2395 6557 5068 3932 4780 2830 4557 
3655 6115 6388 6540 2884 4023 6151 3939 5594 
6371 5349 3589 7624 533 1612 1994 3215 3390 
302 1992 1689 10 370 1744 1117 877 1697 
1806 3178 1671 1541 3505 3426 2491 2146 4736 
110 623 587 748 1937 2469 2136 3074 3027 
2129 2385 1295 2343 1336 4688 3620 4683 3198 
1089 6212 3243 36 2443 3138 220 4908 2357 
6385 770 1455 6320 6073 3751 3713 410 3848 
6435 4043 2711 5229 5612 2650 3912 7857 8067 
77 4545 2444 3442 3047 1057 645 165 530 
58 1066 4918 5212 6394 6110 3825 6406 918 
928 1581 2601 6215 3362 2109 6067 6278 6054 
1218 4107 4764 4928 3838 6062 6185 7831 7905 
973 972 3417 3514 882 4969 3860 277 1663 
3554 545 3024 3627 2059 3494 1760 550 1139 
4019 3425 693 1163 4635 6499 4803 6411 6376 
5160 3901 3962 7605 7891 2875 1767 4073 1578 
382 3344 2631 974 4848 252 3326 346 657 
2032 4801 3623 2307 1266 1490 680 1859 664 
1441 505 1153 4972 2249 1736 239 2950 6184 
5 3888 1258 3353 399 2258 1055 6344 4102 
5550 2954 6461 6359 5098 2858 5203 5376 7717 
7742 7770 7916 7979 1540 525 4912 4758 6135 
315 4865 232 64 489 4849 1012 137 1520 
1838 113 838 68 297 2566 1038 620 5022 
5026 1758 3431 609 1168 2102 5070 1152 1121 
758 4099 2506 2372 2172 3611 2160 6154 3343 
766 582 1492 6355 3904 1526 1796 5097 6503 
5375 5377 6322 5526 2957 5590 5244 3613 3855 
2641 7711 7745 7856 1228 1239 891 1064 2290 
2247 1562 48 1721 3077 1608 5037 1558 1647 
1523 642 471 32 2026 524 1935 218 3158 
3560 3400 1795 1840 3122 3097 3087 4062 66 
857 3489 138 3091 1415 3645 4083 3121 764 
2477 3695 2223 6310 4895 3665 3955 4620 2103 
2794 6325 2296 2399 4408 1442 4046 2981 2500 
3599 4395 3890 2681 3624 2744 2869 5359 7796 
394 2602 6300 411 1522 2295 1968 3110 233 
311 259 251 378 3157 1584 3444 4512 4907 
1881 703 5032 2211 757 2691 3159 3789 19 
4679 3817 2175 5156 6049 188 5361 3592 6268 
3938 4954 3873 5239 2730 6174 3910 2699 5381 
4174 7664 3322 1515 1051 3790 2252 1188 2163 
2496 94 90 334 4 1908 126 1622 3329 
675 3210 3145 5021 3038 768 3348 3435 2169 
4775 2568 336 915 3936 1241 2606 3573 6245 
3699 2908 2930 2871 4577 2775 3830 6141 6532 
1433 5572 6335 5104 2781 5254 7555 7650 7698 
7794 7808 7826 7917 8001 8047 4394 1742 475 
3416 3459 564 226 500 1591 1830 422 839 
682 3211 983 933 3511 2559 789 4636 1998 
599 544 1034 964 767 1650 579 4813 4624 
5014 2178 2402 2204 2539 3179 4551 4655 2599 
2581 1204 2232 4104 4819 1432 2861 2190 4585 
2298 2196 4052 3724 2868 2891 6001 272 1741 
2472 368 3923 4826 1116 2218 3922 2401 6553 
2759 6186 2617 1232 3924 6342 4752 1388 6476 
6524 5245 2844 4103 5524 6552 6128 3723 5571 
3793 6308 6821 5481 1598 6327 2289 2229 4859 
1746 1048 467 257 1803 1973 415 1833 1904 
1867 3310 1919 3301 3518 3236 2166 803 4626 
4672 4759 4947 93 1924 4509 1759 1538 1560 
15 1110 539 2495 4987 2280 2139 4991 3057 
2558 834 2127 3777 1017 1499 1286 1150 4110 
2076 2348 5414 2397 6045 3003 2563 3897 483 
2407 1326 6551 342 5478 5336 6237 2643 6428 
5458 3629 7523 7929 7957 7995 1784 2462 234 
4974 2478 3535 178 1906 712 1855 506 1819 
511 1687 3221 953 3303 916 1789 3530 1003 
1097 2591 637 4574 5051 1692 640 3392 3526 
499 826 681 4638 3496 3186 2355 1223 3090 
4776 5057 1230 4993 1183 6216 6286 357 4874 
1236 140 694 321 4668 4131 6256 5017 2811 
1288 6363 2953 5444 6356 2703 6214 1632 849 
162 3477 1079 4929 1126 2082 3058 3105 954 
4728 1364 6563 4787 185 3084 4920 3067 3567 
1262 314 2262 1046 4663 6223 6182 4995 6436 
6103 6410 6302 6158 5598 3843 3686 6407 3237 
4021 2686 5226 7529 7651 7660 7674 7819 7894 
7969 8061 8070 490 3295 601 2023 1871 1733 
2405 6210 1787 186 938 1703 1387 5369 2747 
6261 217 5087 3981 3858 6324 2767 3792 6480 
2893 6912 1172 7011 5268 5394 7588 7709 434 
1149 4784 362 3569 353 1961 752 3019 348 
219 2058 887 514 604 649 626 3429 3010 
2652 3406 1966 3519 1993 3576 4742 2692 6397 
6474 3375 814 99 3441 274 1035 5193 1493 
4584 2892 6094 6273 6525 2217 6764 3765 3662 
2812 2690 3633 5373 7740 7940 139 4809 1135 
2958 3553 216 3484 2224 2105 922 1000 2206 
248 1652 73 191 1831 63 1047 1745 1102 
1120 1942 3109 1902 1024 2571 4666 4681 5047 
889 1542 249 1545 1749 1260 3909 3763 2466 
1376 1141 4670 3816 3608 3691 6070 6478 291 
2226 3223 755 5064 6341 696 931 4745 2867 
6463 5303 2455 1472 6314 4442 2261 5002 4096 
6098 3905 2813 1466 651 3931 2471 5420 5448 
6878 7609 7861 7923 1825 478 2623 1419 4808 
1160 3568 2147 12 117 2001 198 1931 181 
3094 3549 371 1092 3376 635 3072 736 3372 
650 667 2349 3161 3076 1436 2241 2574 4538 
4817 3273 3170 1782 776 3229 860 778 3562 
2547 1154 1394 2585 3433 3878 4949 4596 4026 
2553 2243 1384 4013 6380 6519 6573 820 1761 
1661 1058 1212 2389 4020 3983 1225 2741 6489 
6260 831 968 3034 2909 2301 2108 4017 2489 
1138 6375 5508 2976 6494 4010 6079 4669 4108 
3915 2825 3639 5231 5541 7599 7811 3137 304 
3619 2633 2004 3286 290 74 1644 349 354 
1944 134 383 1979 1714 1720 1593 3497 3312 
679 982 4029 4925 4948 5040 558 673 365 
3001 340 3112 3428 3054 2531 1775 4079 1165 
720 1377 3885 1417 4607 1291 2817 730 4804 
6395 6113 4123 5587 4165 2921 2738 2982 7977 
4924 3545 3315 3475 1300 4579 1601 874 2238 
457 308 1899 2042 303 129 1892 419 3104 
3194 3239 2061 1552 20 3173 3421 1726 2069 
2170 3565 1093 3185 4649 4701 3706 1797 2600 
1095 1208 1604 1309 4723 4945 2142 2760 2931 
6346 905 4919 833 5454 3744 4982 6240 2284 
2911 2914 5170 2483 2234 1421 4204 3539 2673 
243 711 491 737 1817 71 565 1648 1728 
580 3026 3168 3260 3448 1936 1043 3415 1001 
3387 1039 908 2565 713 945 4643 4644 4796 
4799 4955 2038 870 2629 1958 866 3544 2507 
4977 1201 2499 2595 4985 1041 847 2431 2325 
1429 2688 3697 4565 2425 3616 1334 6398 3473 
3702 6166 3708 1792 3040 3311 986 897 5044 
2632 1159 1402 1352 3786 2236 6287 4065 4852 
4048 4381 3657 2834 4081 4588 6291 4179 6027 
6163 4109 6443 5372 6031 6891 7516 7569 7875 
8000 8026 4300 2288 4761 3650 3540 2035 1922 
1986 214 376 519 2071 468 3439 57 1750 
749 3049 146 2048 1511 1991 1679 1649 2051 
88 435 3486 2378 2394 4533 4971 5016 1615 
3282 1914 4658 5036 2549 2492 825 4660 2437 
4521 1392 3339 3503 611 4531 1312 3693 1337 
6274 6306 6328 6362 3454 1357 1783 4734 2476 
1338 2651 3839 6033 6235 4031 5514 1378 2964 
3696 4674 5112 3716 2870 4063 4030 6039 4303 
5300 7541 7760 4405 1403 1943 5353 2540 6495 
745 652 1637 3227 3287 9 1894 1512 327 
552 718 1897 728 824 1008 2173 729 49 
1704 1706 513 1839 1770 616 943 2388 3913 
2205 1245 2145 1278 1304 3347 4821 2313 2417 
470 4622 1157 3522 2980 5000 2377 3764 2161 
2653 6205 6534 1676 2125 2086 2366 3160 6192 
2311 2390 6497 1709 6041 7514 7550 7919 3434 
424 717 1074 299 1602 223 630 114 1551 
3485 4938 1856 656 4707 3240 3314 1332 3559 
782 1240 3595 2212 2117 2479 598 3770 6420 
6544 450 4741 3828 6078 4965 6370 4547 3853 
6309 4733 7506 1883 3135 4532 404 3154 1984 
4877 446 1861 209 1638 2054 1567 937 351 
595 1731 3331 2049 641 2156 2380 1193 4986 
836 979 4832 4112 3717 2960 2605 6399 3720 
1178 1162 1451 3528 5008 6037 3863 4518 1401 
2618 4047 2878 2538 1227 5547 3577 3964 4447 
5329 7673 84 1605 6367 5391 1190 1893 1896 
1878 4576 1501 1769 96 482 1685 3148 125 
3144 555 1801 3013 3374 1863 3349 750 3016 
2367 2384 1122 4755 103 1282 2287 1460 2582 
2192 3663 2219 6102 6222 6349 3219 136 1229 
2209 3968 6512 1482 795 4014 3961 5418 2080 
1616 2754 5258 5298 5342 6935 7544 5061 2121 
3883 104 4671 38 5559 6100 1148 1805 3274 
95 278 276 1103 360 1006 3153 81 1129 
1596 2562 2490 2426 3460 2322 4503 4665 1959 
4675 1727 4609 2441 1112 1176 3988 4740 4526 
783 520 742 1088 120 523 2152 4901 4570 
45 142 2679 2654 2945 6334 2864 6293 6231 
1249 2888 3851 5622 6326 3956 3721 8024 791 
2521 6514 1010 1625 4657 244 1967 1592 1613 
932 3201 1561 1999 3212 403 43 793 3193 
2560 2294 4909 1382 1712 65 1028 5067 3048 
2856 273 405 3556 310 3207 2317 5006 2266 
1320 6002 6022 1823 2070 176 1080 2621 87 
4958 4711 1508 3847 5100 3585 3814 6418 3259 
3989 2564 6521 3797 2452 5132 2902 3225 3758 
5247 4058 4086 6432 3728 4492 7695 7941 7946 
4424 1224 496 282 2942 1459 1184 1237 1928 
542 442 44 480 571 397 1683 1563 1766 
3536 3242 7 1040 3302 3086 2567 940 2315 
2570 2323 3171 4528 4535 1423 1985 2438 3136 
777 3700 2198 2614 4661 2504 2272 1206 1418 
3995 2110 5232 5099 5013 6089 6479 3280 6267 
1843 4805 6572 5430 2778 2773 4797 3543 6533 
6014 3350 5138 5433 3806 7522 7718 7765 4957 
3115 6221 3254 363 517 1656 2356 1464 372 
676 3265 1851 1960 613 270 763 1606 920 
3117 3370 592 1072 2576 3147 2404 2337 923 
576 3291 614 3042 2099 2149 2487 2620 3499 
1275 1191 2274 4560 2094 1495 1427 5001 4773 
2454 6106 6465 3096 3226 6567 6242 4856 2821 
6490 1407 3141 3711 3586 4227 7727 7784 1920 
1070 2002 731 147 374 168 148 1884 3116 
3172 1734 3537 2065 1988 1054 1049 950 2292 
2580 4700 1127 384 569 2253 1108 4592 24 
899 3379 1115 859 1481 1951 4886 4524 4966 
3876 3722 3604 1289 5117 5602 3704 6316 6448 
6487 4896 1532 3463 4807 2928 2656 2814 1410 
6250 4614 3506 2658 2634 6148 3841 6560 3626 
2736 3705 2646 2672 3947 7548 8044 2297 2740 
739 661 4973 4824 215 157 203 469 443 
1621 3404 316 1873 1934 590 1657 149 3152 
3167 853 1231 2302 4552 3012 654 2012 3517 
586 2318 959 621 3808 1219 2480 1416 1667 
2354 2122 3228 5042 3594 2246 3718 6159 6254 
1090 112 1987 2364 4695 1268 6178 1351 6299 
3618 6427 5496 3640 1281 5174 2841 7877 4525 
1776 5012 3531 4841 2143 999 896 4777 4766 
3129 2128 2316 254 245 732 3123 187 3386 
1098 2210 1170 4843 2000 3377 3101 323 553 
3490 829 4558 2498 119 3103 3294 1094 1411 
2362 2587 3606 4956 2150 6144 1594 2412 3868 
3666 6251 6504 6562 5482 7571 7804 8021 8064 
3002 4639 6169 1715 3402 1052 947 3256 262 
69 445 596 2340 2423 670 1835 4738 4888 
1207 2111 3893 2273 3601 6374 2860 1653 3436 
4016 3993 4990 4100 4539 6450 2809 1882 1254 
5325 2659 2308 3492 3089 3398 3263 100 211 
1643 2015 581 2512 689 464 3509 192 796 
878 2029 919 3969 2410 4857 835 2330 2107 
2551 3896 5192 6264 6283 6296 6453 6206 2112 
6513 6297 4802 5019 4590 2709 2800 3749 5383 
6440 5222 5727 2776 1290 5129 7601 7623 7724 
7815 7942 432 1611 3111 3733 3309 1609 827 
5050 3468 1005 3725 2542 1539 1549 56 498 
1719 225 29 3155 30 2037 3007 3320 2034 
3128 935 934 1486 3363 4913 4739 1430 4569 
3461 3649 1321 1171 2517 1443 3625 3039 1669 
6566 2785 944 1400 6016 3977 3871 6107 1390 
2281 6330 1285 488 3597 6276 4716 5592 7007 
4181 7771 7890 7920 8032 3432 2013 3278 2140 
686 2126 699 3174 5144 6493 184 619 3500 
3520 1525 3183 228 1509 2030 449 1507 177 
3246 3371 978 1050 996 1065 2545 3143 2467 
2370 5053 1681 390 1673 2014 1771 2245 1808 
3292 2534 3593 4760 6092 2604 993 3516 6571 
179 3798 2009 6060 2513 1292 2649 6423 3780 
1380 4163 4347 7937 2057 3045 1475 2159 41 
2201 1948 361 1837 907 1802 430 3025 3395 
3070 1923 3200 765 1688 594 883 3548 288 
1573 312 1570 2344 848 4769 1146 1303 1335 
4932 4608 1279 4057 3643 2910 2997 1854 808 
3677 3163 2393 1414 4033 6120 4060 1435 5141 
4059 6075 4654 3605 6024 6234 2881 2865 6441 
2371 5561 2183 2025 2903 3914 6447 1175 7540 
7578 7730 7737 1248 2101 4601 2777 1247 784 
2724 59 1917 1666 1915 1751 324 284 3360 
1580 1556 3249 1370 4629 4926 4549 4583 2586 
980 2095 1233 4720 4883 4890 1385 2616 1476 
2436 3829 5159 6019 6180 6233 1815 300 1982 
3622 280 3318 643 4855 2144 3394 2414 3602 
2137 2228 5110 3819 3610 5614 1276 5111 4168 
3628 6452 5197 2750 2625 2925 2668 4012 1457 
2943 4240 2805 5613 4135 7561 7626 7843 494 
2184 629 2079 4845 823 4692 4689 1270 320 
1768 1642 201 1755 1949 1791 3206 3405 3481 
771 3501 406 631 1889 966 3015 1969 684 
1019 2470 753 4772 846 4834 3998 1412 2381 
3996 1398 4101 4091 2334 2326 6364 6483 6109 
3052 2584 4882 1315 3807 6187 3834 3815 6081 
6227 584 3949 6409 3869 2706 2177 3634 1302 
2291 6323 5371 2810 7901 7994 8007 3515 396 
237 2008 3244 1690 3233 813 4648 231 3050 
600 4719 1014 3799 5161 2991 903 7094 7554 
7577 7686 1568 3709 255 1707 1645 3502 6220 
447 3289 246 1748 1793 516 1547 391 75 
387 1952 754 1069 3266 2351 4943 1940 3316 
3399 3334 2626 4917 1137 607 3600 4594 4009 
3940 4732 2092 6433 4903 6456 2836 2428 3739 
6021 6213 3911 3671 2847 4997 2153 5582 2737 