# vtk DataFile Version 4.0
Generated by LIGGGHTS
ASCII
DATASET POLYDATA
POINTS 1488 float
-0.129273 -0.26425 -0.995016 -0.135021 -0.254164 -0.99501 -0.146928 -0.246094 -0.990028 
-0.12203 -0.257294 -0.994745 -0.114145 -0.250608 -0.994945 -0.119539 -0.269455 -0.995023 
-0.0676528 -0.271575 -0.99501 -0.077463 -0.268537 -0.99501 -0.0910502 -0.274878 -0.99501 
-0.0693855 -0.282792 -0.99501 -0.104986 -0.270274 -0.990032 -0.0681317 -0.248657 -0.99501 
-0.0822937 -0.281767 -0.99501 -0.104647 -0.247134 -0.995013 -0.0924191 -0.25307 -0.99501 
-0.0840484 -0.246394 -0.99501 -0.0885652 -0.264265 -0.99501 -0.0944982 -0.240625 -0.99501 
-0.05717 -0.253723 -0.99501 -0.0588938 -0.243175 -0.99501 -0.0436782 -0.251527 -0.99501 
-0.0570225 -0.264769 -0.99501 -0.0414549 -0.280472 -0.99501 -0.0478337 -0.242041 -0.99501 
-0.0465021 -0.262854 -0.99501 -0.0378642 -0.270166 -0.995012 -0.0273277 -0.293169 -0.99501 
-0.0556901 -0.279133 -0.990032 -0.0164881 -0.25757 -0.99501 -0.0472234 -0.29054 -0.99501 
-0.0173573 -0.293958 -0.99501 -0.0312187 -0.281003 -0.99501 -0.0123229 -0.245043 -0.995016 
-0.00600244 -0.294854 -0.99501 -0.0058958 -0.284659 -0.99501 -0.0279395 -0.271517 -0.995008 
-0.0308502 -0.257533 -0.990032 -0.0372474 -0.291378 -0.99501 -0.0122895 -0.276776 -0.99501 
-0.0208373 -0.282172 -0.99501 -0.00733697 -0.266869 -0.99501 -0.017311 -0.267565 -0.99501 
-3.72067e-05 -0.258614 -0.99501 -2.69482e-05 -0.275393 -0.99501 -0.00752314 -0.247056 -0.986491 
0.00473673 -0.247918 -0.99501 0.0039976 -0.294836 -0.99501 0.0143621 -0.240242 -0.99501 
0.0229555 -0.293157 -0.99501 0.0130293 -0.273823 -0.99501 0.0327252 -0.275127 -0.99501 
0.00589002 -0.284967 -0.99501 0.015238 -0.25966 -0.990032 0.0385943 -0.287407 -0.99501 
0.0412855 -0.243428 -0.99501 0.0254856 -0.248945 -0.99501 0.0525629 -0.28139 -0.990031 
0.0444725 -0.26971 -0.99501 0.0321698 -0.260991 -0.99501 0.0163893 -0.283971 -0.99501 
0.0607563 -0.256414 -0.990032 0.0778366 -0.281362 -0.99501 0.0943983 -0.276893 -0.995011 
0.0943873 -0.266651 -0.995014 0.111196 -0.271818 -0.995009 0.107448 -0.257375 -0.99501 
0.077262 -0.263251 -0.99501 0.0719005 -0.272257 -0.99501 0.0882438 -0.254423 -0.994975 
0.0746718 -0.253284 -0.99501 0.0743696 -0.242236 -0.99501 0.102082 -0.271527 -0.990913 
0.119072 -0.241873 -0.99501 0.120104 -0.252631 -0.99501 0.121672 -0.267332 -0.99501 
0.129518 -0.261144 -0.99501 0.139337 -0.258862 -0.99501 0.152786 -0.252106 -0.99501 
0.142911 -0.243056 -0.99501 0.134498 -0.249906 -0.99501 0.163871 -0.244601 -0.993925 
0.160716 -0.246638 -0.981647 0.152549 -0.240398 -0.99501 -0.209484 -0.206438 -0.99501 
-0.182235 -0.231952 -0.995011 -0.197969 -0.203372 -0.995007 -0.191271 -0.222207 -0.99501 
-0.20075 -0.215824 -0.99501 -0.222115 -0.193288 -0.99501 -0.209061 -0.1939 -0.99501 
-0.189589 -0.185899 -0.995009 -0.221972 -0.182309 -0.99501 -0.187808 -0.211064 -0.995055 
-0.232734 -0.180488 -0.99501 -0.162338 -0.236712 -0.99443 -0.178657 -0.205239 -0.99501 
-0.17695 -0.217872 -0.992685 -0.167002 -0.239595 -0.978544 -0.171205 -0.239496 -0.988149 
-0.151461 -0.208429 -0.99501 -0.124004 -0.221516 -0.988299 -0.171385 -0.231289 -0.994935 
-0.155384 -0.223516 -0.987606 -0.142194 -0.214743 -0.99501 -0.135379 -0.231129 -0.99501 
-0.156551 -0.196967 -0.99501 -0.153698 -0.183468 -0.995008 -0.143813 -0.18589 -0.995011 
-0.173753 -0.18159 -0.995012 -0.112989 -0.23905 -0.994484 -0.106853 -0.19373 -0.981589 
-0.108393 -0.21099 -0.977884 -0.0965158 -0.216413 -0.991002 -0.111751 -0.204571 -0.987745 
-0.118613 -0.236924 -0.97946 -0.0762268 -0.239926 -0.99501 -0.0663294 -0.230746 -0.995009 
-0.105939 -0.223887 -0.995018 -0.0848978 -0.230127 -0.99501 -0.106877 -0.191967 -0.99456 
-0.0835746 -0.219584 -0.99501 -0.0748362 -0.225504 -0.995011 -0.0651623 -0.199812 -0.994617 
-0.0982739 -0.198168 -0.994974 -0.0861465 -0.187267 -0.99501 -0.0736259 -0.190497 -0.99501 
-0.0736648 -0.205075 -0.992838 -0.0882685 -0.197741 -0.99501 -0.0898413 -0.209349 -0.994916 
-0.0596277 -0.189405 -0.99501 -0.00910002 -0.235079 -0.995009 -0.0224524 -0.230734 -0.99501 
-0.0546193 -0.232832 -0.99501 -0.0350066 -0.235354 -0.995024 -0.0481396 -0.188306 -0.99501 
-0.059224 -0.219723 -0.99501 -0.0507361 -0.19801 -0.99501 -0.0575344 -0.20965 -0.99501 
-0.0240232 -0.220611 -0.99501 -0.0459151 -0.219398 -0.99501 -0.0168243 -0.212995 -0.99501 
-0.0360533 -0.224181 -0.99501 -0.0353207 -0.214086 -0.99501 -0.0451892 -0.206605 -0.99501 
-0.0350934 -0.196952 -0.99501 -0.0247723 -0.193243 -0.99501 -0.038134 -0.187311 -0.99501 
-0.0125572 -0.199307 -0.99501 -0.00537059 -0.188285 -0.99501 -0.00729228 -0.207986 -0.99501 
-0.0224607 -0.203789 -0.99501 -0.0152779 -0.185592 -0.99501 0.00170715 -0.225551 -0.99501 
0.0353353 -0.233278 -0.99501 0.0284846 -0.202416 -0.99501 0.0183215 -0.229411 -0.99501 
0.020863 -0.194543 -0.99501 0.0236367 -0.220671 -0.99501 0.0314652 -0.213707 -0.99501 
0.00374208 -0.206057 -0.99501 0.0294241 -0.183313 -0.99501 0.0484518 -0.19437 -0.99501 
0.0252911 -0.238655 -0.99501 0.0421771 -0.214151 -0.99501 0.054152 -0.204917 -0.99501 
0.0587702 -0.192195 -0.99501 0.0448428 -0.227617 -0.99501 0.0388911 -0.187579 -0.99501 
0.054183 -0.221158 -0.99501 0.0349088 -0.223283 -0.99501 0.00753705 -0.181983 -0.990032 
0.0634292 -0.238809 -0.99501 0.0624781 -0.227333 -0.99501 0.0634922 -0.216518 -0.99501 
0.0692787 -0.186466 -0.99501 0.0675541 -0.199043 -0.99501 0.0787299 -0.232849 -0.99501 
0.0733297 -0.211007 -0.995009 0.109253 -0.210359 -0.994885 0.0857887 -0.224384 -0.99501 
0.104731 -0.235688 -0.990032 0.0930854 -0.190622 -0.993669 0.0820815 -0.181923 -0.99501 
0.0830826 -0.213951 -0.99501 0.0998326 -0.206982 -0.994997 0.0968744 -0.222114 -0.99501 
0.0726441 -0.223086 -0.99501 0.0773316 -0.201819 -0.995011 0.0905391 -0.201526 -0.99501 
0.104932 -0.181344 -0.995016 0.101636 -0.19623 -0.99501 0.114029 -0.198755 -0.99501 
0.107264 -0.220746 -0.99501 0.111116 -0.189192 -0.995004 0.111425 -0.212429 -0.980194 
0.130473 -0.186655 -0.97211 0.12038 -0.230805 -0.99501 0.120218 -0.215711 -0.99501 
0.154285 -0.229751 -0.99501 0.132716 -0.239129 -0.99501 0.144209 -0.231279 -0.995015 
0.153466 -0.219523 -0.995094 0.135134 -0.20135 -0.99501 0.164013 -0.224653 -0.995018 
0.134191 -0.221303 -0.99003 0.127874 -0.208656 -0.99502 0.143093 -0.183926 -0.995013 
0.153186 -0.205254 -0.99501 0.16487 -0.190453 -0.99501 0.171111 -0.182569 -0.99501 
0.174314 -0.201033 -0.99501 0.14475 -0.197269 -0.99501 0.153989 -0.193069 -0.99501 
0.174534 -0.214359 -0.995003 0.162868 -0.200343 -0.99501 0.122139 -0.191399 -0.99501 
0.135052 -0.19112 -0.99501 0.175505 -0.224303 -0.995015 0.172603 -0.238888 -0.99501 
0.163116 -0.234604 -0.994994 0.162624 -0.212548 -0.985634 0.141765 -0.209343 -0.995009 
0.180988 -0.192473 -0.99501 0.190279 -0.201992 -0.99501 0.194314 -0.220526 -0.99501 
0.199172 -0.21112 -0.99501 0.184037 -0.218811 -0.99501 0.210032 -0.206888 -0.99501 
0.219029 -0.19754 -0.99501 0.190988 -0.186386 -0.99501 0.181996 -0.207692 -0.99501 
0.200247 -0.200939 -0.99501 0.201956 -0.18801 -0.99501 0.208985 -0.196053 -0.99501 
0.215498 -0.187389 -0.99501 0.225974 -0.188193 -0.99501 0.180987 -0.232806 -0.99501 
0.232158 -0.180339 -0.99501 -0.258124 -0.141679 -0.99501 -0.252402 -0.151968 -0.99501 
-0.246923 -0.160868 -0.99501 -0.262915 -0.127872 -0.99501 -0.245626 -0.137308 -0.985997 
-0.241995 -0.15178 -0.99501 -0.252889 -0.124278 -0.994935 -0.202966 -0.179339 -0.995012 
-0.239077 -0.172305 -0.99501 -0.19511 -0.15699 -0.994871 -0.196048 -0.139169 -0.99501 
-0.207829 -0.148826 -0.99501 -0.232327 -0.142275 -0.994443 -0.185089 -0.1377 -0.99501 
-0.231118 -0.132332 -0.995011 -0.224792 -0.159703 -0.99501 -0.220814 -0.146185 -0.99501 
-0.231436 -0.12202 -0.99501 -0.185145 -0.16091 -0.994753 -0.123705 -0.178618 -0.989667 
-0.17859 -0.150988 -0.995037 -0.136759 -0.177244 -0.995015 -0.123421 -0.166918 -0.99247 
-0.153368 -0.128017 -0.99501 -0.145086 -0.156017 -0.99501 -0.124296 -0.156852 -0.993221 
-0.14052 -0.144859 -0.994934 -0.13761 -0.135097 -0.995011 -0.147169 -0.174963 -0.994978 
-0.122467 -0.131247 -0.995 -0.133275 -0.151823 -0.995014 -0.150604 -0.143798 -0.995004 
-0.124614 -0.141089 -0.994316 -0.173498 -0.137337 -0.99501 -0.130501 -0.123847 -0.99501 
-0.123084 -0.147509 -0.985754 -0.116451 -0.17391 -0.994785 -0.091271 -0.160163 -0.986796 
-0.0799706 -0.166717 -0.994915 -0.103851 -0.160905 -0.994943 -0.100453 -0.178282 -0.989534 
-0.115801 -0.123841 -0.995013 -0.113239 -0.164369 -0.994954 -0.110511 -0.150341 -0.99501 
-0.0603466 -0.160818 -0.99501 -0.0945142 -0.165555 -0.994956 -0.0976146 -0.151479 -0.99495 
-0.108977 -0.13183 -0.99501 -0.0761882 -0.140808 -0.98995 -0.0889326 -0.134217 -0.99501 
-0.0691733 -0.128597 -0.995032 -0.084585 -0.157593 -0.99501 -0.0816229 -0.12505 -0.99501 
-0.0869621 -0.17434 -0.994972 -0.063879 -0.148095 -0.99501 -0.0989308 -0.130076 -0.99501 
-0.0513559 -0.172352 -0.990031 -0.0500102 -0.158276 -0.995014 -0.0360933 -0.174151 -0.99501 
-0.0301735 -0.160749 -0.99501 -0.0181611 -0.163347 -0.99501 -0.0533166 -0.142346 -0.99501 
-0.0578514 -0.132465 -0.99501 -0.0564391 -0.121688 -0.99501 -0.0324314 -0.150353 -0.99501 
-0.0121712 -0.141829 -0.99501 -0.0134728 -0.173958 -0.99501 -0.00328436 -0.146873 -0.99501 
-0.0249752 -0.176953 -0.99501 -0.0457018 -0.134502 -0.99501 -0.0230083 -0.153773 -0.99501 
-0.0401961 -0.143982 -0.99501 -0.0111914 -0.155844 -0.99501 -0.0084764 -0.129158 -0.995005 
-0.00567251 -0.165317 -0.99501 -0.0313851 -0.13526 -0.995013 -0.000168814 -0.136953 -0.99501 
-0.0222699 -0.142454 -0.99501 -0.0458101 -0.123106 -0.995027 -0.018279 -0.131269 -0.995015 
-0.032337 -0.121085 -0.988909 0.000161854 -0.123437 -0.99501 0.0472964 -0.170103 -0.99501 
0.000275598 -0.156237 -0.99501 0.022531 -0.175084 -0.99501 0.0144569 -0.168515 -0.99501 
0.0107728 -0.149136 -0.99501 0.00960386 -0.139085 -0.99501 0.0253239 -0.162912 -0.99501 
0.0199814 -0.153403 -0.99501 0.0262584 -0.144341 -0.99501 0.0330789 -0.172318 -0.99501 
0.0384668 -0.144394 -0.99501 0.0101936 -0.159281 -0.99501 0.0100226 -0.127658 -0.99501 
[...]
POINT_DATA 1488
FIELD FieldData 7
id 1 1488 int
1363 202 1136 1289 51 135 909 572 287 
112 589 649 946 78 849 162 1100 625 
918 294 843 1345 1355 196 536 562 122 
17 533 546 37 706 759 1124 315 1264 
588 1044 723 698 1333 797 687 664 989 
1161 402 683 408 183 1258 1373 583 1061 
1081 677 1139 1269 1187 1415 1135 867 328 
364 1489 1374 740 653 561 35 473 145 
930 1497 680 472 194 266 977 1253 1239 
1346 548 1172 1337 1048 933 790 944 1473 
1453 1306 366 718 1056 1194 1196 1036 948 
507 577 900 1144 486 826 416 1440 484 
702 322 246 1470 1003 936 1298 325 1018 
97 1234 1490 830 770 949 1211 818 505 
1272 1437 973 1118 77 877 987 1256 291 
265 1301 1021 543 906 170 429 1452 788 
350 454 886 943 725 851 214 1113 634 
212 310 1491 1308 1267 632 1128 1229 1409 
921 985 811 1086 1027 186 31 1012 26 
801 158 719 1057 362 371 379 864 477 
25 624 373 532 172 329 127 1068 1412 
34 540 911 1244 942 1143 528 525 545 
1232 1477 838 979 1189 1359 5 646 462 
636 1200 476 1318 455 915 1454 1300 179 
869 297 1052 1414 582 1121 1448 1045 874 
1462 926 898 334 286 1469 309 1483 1498 
726 1370 1468 76 735 1314 452 1123 579 
929 1236 888 426 1387 704 530 972 1097 
568 556 737 1428 842 376 1163 144 952 
1213 1467 333 458 1375 338 438 453 1159 
1164 732 1443 1242 666 467 707 506 585 
1481 777 882 925 615 348 519 1145 685 
990 681 1360 802 1022 389 574 39 440 
1367 850 810 206 781 358 395 1341 674 
1216 645 175 809 1365 711 128 631 657 
1492 881 1110 28 620 760 490 263 1401 
1221 647 691 1202 1166 292 1274 313 622 
1158 967 401 1011 655 1287 1090 991 67 
306 1073 1150 1175 827 277 1023 123 210 
786 1257 131 840 1215 709 857 1188 1321 
551 1466 629 1347 216 163 669 261 409 
575 518 1273 337 1376 1331 48 1075 1179 
141 1130 225 758 703 495 934 696 1260 
73 815 951 710 151 1366 230 130 118 
94 1051 65 957 699 60 993 730 832 
817 1246 305 414 419 195 1102 1394 763 
1191 1030 1020 892 1479 764 1241 746 613 
605 1060 1093 1245 1388 917 544 1286 159 
1458 55 446 443 441 93 841 693 964 
84 1439 1410 1108 243 554 178 1450 101 
800 678 866 1395 70 33 527 749 119 
1105 1034 950 470 1168 1223 1174 908 116 
1340 792 1131 1111 226 72 499 267 1091 
10 9 375 983 1182 1074 1307 335 708 
108 1285 602 1411 331 1002 1325 137 448 
1214 1261 512 1210 330 1114 521 1434 1446 
357 321 539 779 157 821 396 451 804 
224 3 1447 662 1249 250 765 423 47 
169 1116 1148 238 1165 1416 140 30 1252 
219 509 524 504 819 865 1371 1400 276 
1071 434 1038 485 873 515 1151 1353 399 
856 1361 1033 378 1369 675 1271 672 858 
182 8 211 471 489 6 463 1149 198 
1119 74 1311 542 514 248 354 1380 120 
411 982 1425 252 975 1222 68 432 1324 
372 360 1309 1431 1417 1423 566 16 594 
995 870 139 1160 40 304 931 534 1040 
992 1224 403 912 181 720 394 1493 233 
1185 713 259 970 285 1104 256 347 1419 
397 1418 4 831 1208 919 311 1461 523 
750 855 1032 475 428 234 965 146 500 
803 508 1014 80 939 1441 661 814 1432 
580 976 1039 902 302 1352 418 547 825 
1460 928 1304 795 1207 1070 89 600 812 
165 229 1142 1077 1310 343 1323 1354 370 
115 897 1016 1204 424 1055 721 272 387 
1328 1344 502 599 513 616 340 1343 392 
1047 190 1226 323 257 1157 1079 1082 1262 
956 1183 610 56 1008 193 345 368 628 
1288 1001 755 745 461 1430 1457 184 155 
999 317 626 742 442 907 752 1480 12 
1141 1356 1297 32 1080 497 43 836 100 
623 1154 1006 744 887 217 862 213 405 
1035 522 103 104 45 1065 769 883 871 
1120 1377 1485 95 1404 665 903 274 642 
249 83 290 963 1389 606 966 644 242 
66 1007 1106 351 771 90 129 117 558 
650 187 312 1248 20 1255 673 480 134 
793 571 618 847 1251 273 1212 940 889 
772 598 679 336 349 517 59 1195 1299 
913 1072 878 932 1326 251 609 823 1146 
282 1228 1398 1184 923 494 905 1444 592 
1427 820 612 1433 614 153 643 1296 422 
945 652 531 264 958 564 374 516 1342 
717 587 71 885 468 369 1076 222 147 
899 834 824 1392 767 447 491 608 483 
168 1405 596 712 729 24 1137 538 1465 
535 314 959 1429 1499 69 853 1390 1420 
731 1312 1403 1126 789 637 1230 974 339 
1198 734 299 355 64 924 1186 245 1290 
464 938 1117 384 439 197 91 1067 627 
1162 941 695 81 716 138 1122 783 1476 
776 1129 200 1442 239 433 82 293 1177 
1278 191 228 520 1013 171 935 676 410 
361 621 1464 1276 1028 748 1283 1275 641 
1435 353 875 449 1156 218 651 1096 498 
962 247 1378 324 861 421 53 280 1317 
303 635 684 1227 806 7 98 1024 1169 
244 492 188 109 1475 563 978 1472 126 
1263 766 1279 260 501 87 1303 1099 1176 
241 125 557 1225 768 19 757 363 1206 
1426 1095 722 1085 1384 1335 1083 236 955 
270 663 1235 377 1292 391 231 986 682 
481 15 1338 611 1173 1247 1046 670 1474 
654 893 415 469 1284 837 398 953 601 
192 1112 968 567 1488 1327 916 937 1266 
739 75 648 1243 633 603 511 1291 762 
607 254 319 36 947 1219 1218 586 828 
185 1332 630 1487 584 1478 346 595 327 
342 773 1025 1066 1203 1089 1494 382 550 
835 988 604 390 444 482 581 984 1170 
1484 278 1456 1000 1152 1240 552 1486 271 
914 79 258 658 541 1413 1319 667 787 
113 1322 38 1436 1134 1265 488 1295 92 
386 927 1092 307 430 1220 784 281 782 
1050 177 1270 980 44 1 901 714 890 
1171 619 160 1064 308 167 1058 686 1459 
845 176 393 288 174 63 1495 700 107 
1059 365 1153 969 1496 833 807 227 1393 
88 640 1329 148 1009 275 894 1054 656 
859 316 279 590 565 221 215 1364 1334 
1069 237 1281 617 829 1197 296 1305 701 
1445 671 1087 289 1043 689 813 11 150 
1391 1127 381 1181 262 1351 180 255 41 
724 593 496 223 796 1372 549 1180 29 
1109 1088 114 1138 1357 1382 85 1449 1041 
896 99 133 465 1062 798 413 578 808 
1254 320 1349 1103 1320 1455 1209 121 1293 
799 417 816 1397 805 466 961 106 111 
694 1019 846 996 388 478 436 1424 1178 
778 1015 1277 852 1358 400 284 14 1336 
295 738 300 164 406 891 1315 1407 920 
161 367 998 1402 775 209 728 1049 1231 
1192 298 741 156 1217 591 569 407 1167 
1205 751 785 1302 1201 1330 58 136 1190 
1280 269 352 445 204 510 981 240 1313 
1084 774 18 1294 437 435 124 1471 690 
57 1408 1316 503 884 895 96 383 207 
1107 235 22 318 450 880 208 456 143 
201 412 1017 1031 1438 1259 791 879 1199 
529 21 960 848 142 780 2 994 537 
638 1029 597 1463 1381 1010 1094 50 733 
1078 526 1037 743 457 727 1385 1238 431 
326 268 555 1383 1115 736 1233 359 922 
854 1193 102 42 705 753 570 220 493 
173 839 356 1125 1451 203 232 844 1386 
754 971 747 1350 1053 692 715 1155 380 
1098 659 1004 1348 46 1422 154 660 868 
149 404 105 1005 420 86 479 253 1063 
460 1482 23 52 1268 425 576 49 1406 
1339 61 553 863 54 474 13 27 199 
756 668 910 1399 166 1368 487 794 283 
1026 876 1133 332 904 1362 822 62 697 
872 559 761 997 639 1101 344 560 152 
1421 860 1282 341 1042 1396 385 573 1132 
1147 1379 1140 
type 1 1488 int
1 1 1 1 1 1 1 1 1 
1 1 1 1 1 1 1 1 1 
1 1 1 1 1 1 1 1 1 
1 1 1 1 1 1 1 1 1 
1 1 1 1 1 1 1 1 1 
1 1 1 1 1 1 1 1 1 
1 1 1 1 1 1 1 1 1 
1 1 1 1 1 1 1 1 1 
1 1 1 1 1 1 1 1 1 
1 1 1 1 1 1 1 1 1 
1 1 1 1 1 1 1 1 1 
1 1 1 1 1 1 1 1 1 
1 1 1 1 1 1 1 1 1 
1 1 1 1 1 1 1 1 1 
1 1 1 1 1 1 1 1 1 
1 1 1 1 1 1 1 1 1 
1 1 1 1 1 1 1 1 1 
1 1 1 1 1 1 1 1 1 
1 1 1 1 1 1 1 1 1 
1 1 1 1 1 1 1 1 1 
1 1 1 1 1 1 1 1 1 
1 1 1 1 1 1 1 1 1 
1 1 1 1 1 1 1 1 1 
1 1 1 1 1 1 1 1 1 
1 1 1 1 1 1 1 1 1 
1 1 1 1 1 1 1 1 1 
1 1 1 1 1 1 1 1 1 
1 1 1 1 1 1 1 1 1 
1 1 1 1 1 1 1 1 1 
1 1 1 1 1 1 1 1 1 
1 1 1 1 1 1 1 1 1 
1 1 1 1 1 1 1 1 1 
1 1 1 1 1 1 1 1 1 
1 1 1 1 1 1 1 1 1 
1 1 1 1 1 1 1 1 1 
1 1 1 1 1 1 1 1 1 
1 1 1 1 1 1 1 1 1 
1 1 1 1 1 1 1 1 1 
1 1 1 1 1 1 1 1 1 
1 1 1 1 1 1 1 1 1 
1 1 1 1 1 1 1 1 1 
1 1 1 1 1 1 1 1 1 
1 1 1 1 1 1 1 1 1 
1 1 1 1 1 1 1 1 1 
1 1 1 1 1 1 1 1 1 
1 1 1 1 1 1 1 1 1 
1 1 1 1 1 1 1 1 1 
1 1 1 1 1 1 1 1 1 
1 1 1 1 1 1 1 1 1 
1 1 1 1 1 1 1 1 1 
1 1 1 1 1 1 1 1 1 
1 1 1 1 1 1 1 1 1 
1 1 1 1 1 1 1 1 1 
1 1 1 1 1 1 1 1 1 
1 1 1 1 1 1 1 1 1 
1 1 1 1 1 1 1 1 1 
1 1 1 1 1 1 1 1 1 
1 1 1 1 1 1 1 1 1 
1 1 1 1 1 1 1 1 1 
1 1 1 1 1 1 1 1 1 
1 1 1 1 1 1 1 1 1 
1 1 1 1 1 1 1 1 1 
1 1 1 1 1 1 1 1 1 
1 1 1 1 1 1 1 1 1 
1 1 1 1 1 1 1 1 1 
1 1 1 1 1 1 1 1 1 
1 1 1 1 1 1 1 1 1 
1 1 1 1 1 1 1 1 1 
1 1 1 1 1 1 1 1 1 
1 1 1 1 1 1 1 1 1 
1 1 1 1 1 1 1 1 1 
1 1 1 1 1 1 1 1 1 
1 1 1 1 1 1 1 1 1 
1 1 1 1 1 1 1 1 1 
1 1 1 1 1 1 1 1 1 
1 1 1 1 1 1 1 1 1 
1 1 1 1 1 1 1 1 1 
1 1 1 1 1 1 1 1 1 
1 1 1 1 1 1 1 1 1 
1 1 1 1 1 1 1 1 1 
1 1 1 1 1 1 1 1 1 
1 1 1 1 1 1 1 1 1 
1 1 1 1 1 1 1 1 1 
1 1 1 1 1 1 1 1 1 
1 1 1 1 1 1 1 1 1 
1 1 1 1 1 1 1 1 1 
1 1 1 1 1 1 1 1 1 
1 1 1 1 1 1 1 1 1 
1 1 1 1 1 1 1 1 1 
1 1 1 1 1 1 1 1 1 
1 1 1 1 1 1 1 1 1 
1 1 1 1 1 1 1 1 1 
1 1 1 1 1 1 1 1 1 
1 1 1 1 1 1 1 1 1 
1 1 1 1 1 1 1 1 1 
1 1 1 1 1 1 1 1 1 
1 1 1 1 1 1 1 1 1 
1 1 1 1 1 1 1 1 1 
1 1 1 1 1 1 1 1 1 
1 1 1 1 1 1 1 1 1 
1 1 1 1 1 1 1 1 1 
1 1 1 1 1 1 1 1 1 
1 1 1 1 1 1 1 1 1 
1 1 1 1 1 1 1 1 1 
1 1 1 1 1 1 1 1 1 
1 1 1 1 1 1 1 1 1 
1 1 1 1 1 1 1 1 1 
1 1 1 1 1 1 1 1 1 
1 1 1 1 1 1 1 1 1 
1 1 1 1 1 1 1 1 1 
1 1 1 1 1 1 1 1 1 
1 1 1 1 1 1 1 1 1 
1 1 1 1 1 1 1 1 1 
1 1 1 1 1 1 1 1 1 
1 1 1 1 1 1 1 1 1 
1 1 1 1 1 1 1 1 1 
1 1 1 1 1 1 1 1 1 
1 1 1 1 1 1 1 1 1 
1 1 1 1 1 1 1 1 1 
1 1 1 1 1 1 1 1 1 
1 1 1 1 1 1 1 1 1 
1 1 1 1 1 1 1 1 1 
1 1 1 1 1 1 1 1 1 
1 1 1 1 1 1 1 1 1 
1 1 1 1 1 1 1 1 1 
1 1 1 1 1 1 1 1 1 
1 1 1 1 1 1 1 1 1 
1 1 1 1 1 1 1 1 1 
1 1 1 1 1 1 1 1 1 
1 1 1 1 1 1 1 1 1 
1 1 1 1 1 1 1 1 1 
1 1 1 1 1 1 1 1 1 
1 1 1 1 1 1 1 1 1 
1 1 1 1 1 1 1 1 1 
1 1 1 1 1 1 1 1 1 
1 1 1 1 1 1 1 1 1 
1 1 1 1 1 1 1 1 1 
1 1 1 1 1 1 1 1 1 
1 1 1 1 1 1 1 1 1 
1 1 1 1 1 1 1 1 1 
1 1 1 1 1 1 1 1 1 
1 1 1 1 1 1 1 1 1 
1 1 1 1 1 1 1 1 1 
1 1 1 1 1 1 1 1 1 
1 1 1 1 1 1 1 1 1 
1 1 1 1 1 1 1 1 1 
1 1 1 1 1 1 1 1 1 
1 1 1 1 1 1 1 1 1 
1 1 1 1 1 1 1 1 1 
1 1 1 1 1 1 1 1 1 
1 1 1 1 1 1 1 1 1 
1 1 1 1 1 1 1 1 1 
1 1 1 1 1 1 1 1 1 
1 1 1 1 1 1 1 1 1 
1 1 1 1 1 1 1 1 1 
1 1 1 1 1 1 1 1 1 
1 1 1 1 1 1 1 1 1 
1 1 1 1 1 1 1 1 1 
1 1 1 1 1 1 1 1 1 
1 1 1 1 1 1 1 1 1 
1 1 1 1 1 1 1 1 1 
1 1 1 1 1 1 1 1 1 
1 1 1 1 1 1 1 1 1 
1 1 1 1 1 1 1 1 1 
1 1 1 1 1 1 1 1 1 
1 1 1 
i 3 1488 int
0 0 0 0 0 0 0 0 0 
0 0 0 0 0 0 0 0 0 
0 0 0 0 0 0 0 0 0 
0 0 0 0 0 0 0 0 0 
0 0 0 0 0 0 0 0 0 
0 0 0 0 0 0 0 0 0 
0 0 0 0 0 0 0 0 0 
0 0 0 0 0 0 0 0 0 
0 0 0 0 0 0 0 0 0 
0 0 0 0 0 0 0 0 0 
0 0 0 0 0 0 0 0 0 
0 0 0 0 0 0 0 0 0 
0 0 0 0 0 0 0 0 0 
0 0 0 0 0 0 0 0 0 
0 0 0 0 0 0 0 0 0 
0 0 0 0 0 0 0 0 0 
0 0 0 0 0 0 0 0 0 
0 0 0 0 0 0 0 0 0 
0 0 0 0 0 0 0 0 0 
0 0 0 0 0 0 0 0 0 
0 0 0 0 0 0 0 0 0 
0 0 0 0 0 0 0 0 0 
0 0 0 0 0 0 0 0 0 
0 0 0 0 0 0 0 0 0 
0 0 0 0 0 0 0 0 0 
0 0 0 0 0 0 0 0 0 
0 0 0 0 0 0 0 0 0 
0 0 0 0 0 0 0 0 0 
0 0 0 0 0 0 0 0 0 
0 0 0 0 0 0 0 0 0 
0 0 0 0 0 0 0 0 0 
0 0 0 0 0 0 0 0 0 
0 0 0 0 0 0 0 0 0 
0 0 0 0 0 0 0 0 0 
0 0 0 0 0 0 0 0 0 
0 0 0 0 0 0 0 0 0 
0 0 0 0 0 0 0 0 0 
0 0 0 0 0 0 0 0 0 
0 0 0 0 0 0 0 0 0 
0 0 0 0 0 0 0 0 0 
0 0 0 0 0 0 0 0 0 
0 0 0 0 0 0 0 0 0 
0 0 0 0 0 0 0 0 0 
0 0 0 0 0 0 0 0 0 
0 0 0 0 0 0 0 0 0 
0 0 0 0 0 0 0 0 0 
0 0 0 0 0 0 0 0 0 
0 0 0 0 0 0 0 0 0 
0 0 0 0 0 0 0 0 0 
0 0 0 0 0 0 0 0 0 
0 0 0 0 0 0 0 0 0 
0 0 0 0 0 0 0 0 0 
0 0 0 0 0 0 0 0 0 
0 0 0 0 0 0 0 0 0 
0 0 0 0 0 0 0 0 0 
0 0 0 0 0 0 0 0 0 
0 0 0 0 0 0 0 0 0 
0 0 0 0 0 0 0 0 0 
0 0 0 0 0 0 0 0 0 
0 0 0 0 0 0 0 0 0 
0 0 0 0 0 0 0 0 0 
0 0 0 0 0 0 0 0 0 
0 0 0 0 0 0 0 0 0 
0 0 0 0 0 0 0 0 0 
0 0 0 0 0 0 0 0 0 
0 0 0 0 0 0 0 0 0 
0 0 0 0 0 0 0 0 0 
0 0 0 0 0 0 0 0 0 
0 0 0 0 0 0 0 0 0 
0 0 0 0 0 0 0 0 0 
0 0 0 0 0 0 0 0 0 
0 0 0 0 0 0 0 0 0 
0 0 0 0 0 0 0 0 0 
0 0 0 0 0 0 0 0 0 
0 0 0 0 0 0 0 0 0 
0 0 0 0 0 0 0 0 0 
0 0 0 0 0 0 0 0 0 
0 0 0 0 0 0 0 0 0 
0 0 0 0 0 0 0 0 0 
0 0 0 0 0 0 0 0 0 
0 0 0 0 0 0 0 0 0 
0 0 0 0 0 0 0 0 0 
0 0 0 0 0 0 0 0 0 
0 0 0 0 0 0 0 0 0 
0 0 0 0 0 0 0 0 0 
0 0 0 0 0 0 0 0 0 
0 0 0 0 0 0 0 0 0 
0 0 0 0 0 0 0 0 0 
0 0 0 0 0 0 0 0 0 
0 0 0 0 0 0 0 0 0 
0 0 0 0 0 0 0 0 0 
0 0 0 0 0 0 0 0 0 
0 0 0 0 0 0 0 0 0 
0 0 0 0 0 0 0 0 0 
0 0 0 0 0 0 0 0 0 
0 0 0 0 0 0 0 0 0 
0 0 0 0 0 0 0 0 0 
0 0 0 0 0 0 0 0 0 
0 0 0 0 0 0 0 0 0 
0 0 0 0 0 0 0 0 0 
0 0 0 0 0 0 0 0 0 
0 0 0 0 0 0 0 0 0 
0 0 0 0 0 0 0 0 0 
0 0 0 0 0 0 0 0 0 
0 0 0 0 0 0 0 0 0 
0 0 0 0 0 0 0 0 0 
0 0 0 0 0 0 0 0 0 
0 0 0 0 0 0 0 0 0 
0 0 0 0 0 0 0 0 0 
0 0 0 0 0 0 0 0 0 
0 0 0 0 0 0 0 0 0 
0 0 0 0 0 0 0 0 0 
0 0 0 0 0 0 0 0 0 
0 0 0 0 0 0 0 0 0 
0 0 0 0 0 0 0 0 0 
0 0 0 0 0 0 0 0 0 
0 0 0 0 0 0 0 0 0 
0 0 0 0 0 0 0 0 0 
0 0 0 0 0 0 0 0 0 
0 0 0 0 0 0 0 0 0 
0 0 0 0 0 0 0 0 0 
0 0 0 0 0 0 0 0 0 
0 0 0 0 0 0 0 0 0 
0 0 0 0 0 0 0 0 0 
0 0 0 0 0 0 0 0 0 
0 0 0 0 0 0 0 0 0 
0 0 0 0 0 0 0 0 0 
0 0 0 0 0 0 0 0 0 
0 0 0 0 0 0 0 0 0 
0 0 0 0 0 0 0 0 0 
0 0 0 0 0 0 0 0 0 
0 0 0 0 0 0 0 0 0 
0 0 0 0 0 0 0 0 0 
0 0 0 0 0 0 0 0 0 
0 0 0 0 0 0 0 0 0 
0 0 0 0 0 0 0 0 0 
0 0 0 0 0 0 0 0 0 
0 0 0 0 0 0 0 0 0 
0 0 0 0 0 0 0 0 0 
0 0 0 0 0 0 0 0 0 
0 0 0 0 0 0 0 0 0 
0 0 0 0 0 0 0 0 0 
0 0 0 0 0 0 0 0 0 
0 0 0 0 0 0 0 0 0 
0 0 0 0 0 0 0 0 0 
0 0 0 0 0 0 0 0 0 
0 0 0 0 0 0 0 0 0 
0 0 0 0 0 0 0 0 0 
0 0 0 0 0 0 0 0 0 
0 0 0 0 0 0 0 0 0 
0 0 0 0 0 0 0 0 0 
0 0 0 0 0 0 0 0 0 
0 0 0 0 0 0 0 0 0 
0 0 0 0 0 0 0 0 0 
0 0 0 0 0 0 0 0 0 
0 0 0 0 0 0 0 0 0 
0 0 0 0 0 0 0 0 0 
0 0 0 0 0 0 0 0 0 
0 0 0 0 0 0 0 0 0 
0 0 0 0 0 0 0 0 0 
0 0 0 0 0 0 0 0 0 
0 0 0 0 0 0 0 0 0 
0 0 0 0 0 0 0 0 0 
0 0 0 0 0 0 0 0 0 
0 0 0 0 0 0 0 0 0 
0 0 0 0 0 0 0 0 0 
0 0 0 0 0 0 0 0 0 
0 0 0 0 0 0 0 0 0 
0 0 0 0 0 0 0 0 0 
0 0 0 0 0 0 0 0 0 
0 0 0 0 0 0 0 0 0 
0 0 0 0 0 0 0 0 0 
0 0 0 0 0 0 0 0 0 
0 0 0 0 0 0 0 0 0 
0 0 0 0 0 0 0 0 0 
0 0 0 0 0 0 0 0 0 
0 0 0 0 0 0 0 0 0 
0 0 0 0 0 0 0 0 0 
0 0 0 0 0 0 0 0 0 
0 0 0 0 0 0 0 0 0 
0 0 0 0 0 0 0 0 0 
0 0 0 0 0 0 0 0 0 
0 0 0 0 0 0 0 0 0 
0 0 0 0 0 0 0 0 0 
0 0 0 0 0 0 0 0 0 
0 0 0 0 0 0 0 0 0 
0 0 0 0 0 0 0 0 0 
0 0 0 0 0 0 0 0 0 
0 0 0 0 0 0 0 0 0 
0 0 0 0 0 0 0 0 0 
0 0 0 0 0 0 0 0 0 
0 0 0 0 0 0 0 0 0 
0 0 0 0 0 0 0 0 0 
0 0 0 0 0 0 0 0 0 
0 0 0 0 0 0 0 0 0 
0 0 0 0 0 0 0 0 0 
0 0 0 0 0 0 0 0 0 
0 0 0 0 0 0 0 0 0 
0 0 0 0 0 0 0 0 0 
0 0 0 0 0 0 0 0 0 
0 0 0 0 0 0 0 0 0 
0 0 0 0 0 0 0 0 0 
0 0 0 0 0 0 0 0 0 
0 0 0 0 0 0 0 0 0 
0 0 0 0 0 0 0 0 0 
0 0 0 0 0 0 0 0 0 
0 0 0 0 0 0 0 0 0 
0 0 0 0 0 0 0 0 0 
0 0 0 0 0 0 0 0 0 
0 0 0 0 0 0 0 0 0 
0 0 0 0 0 0 0 0 0 
0 0 0 0 0 0 0 0 0 
0 0 0 0 0 0 0 0 0 
0 0 0 0 0 0 0 0 0 
0 0 0 0 0 0 0 0 0 
0 0 0 0 0 0 0 0 0 
0 0 0 0 0 0 0 0 0 
0 0 0 0 0 0 0 0 0 
0 0 0 0 0 0 0 0 0 
0 0 0 0 0 0 0 0 0 
0 0 0 0 0 0 0 0 0 
0 0 0 0 0 0 0 0 0 
0 0 0 0 0 0 0 0 0 
0 0 0 0 0 0 0 0 0 
0 0 0 0 0 0 0 0 0 
0 0 0 0 0 0 0 0 0 
0 0 0 0 0 0 0 0 0 
0 0 0 0 0 0 0 0 0 
0 0 0 0 0 0 0 0 0 
0 0 0 0 0 0 0 0 0 
0 0 0 0 0 0 0 0 0 
0 0 0 0 0 0 0 0 0 
0 0 0 0 0 0 0 0 0 
0 0 0 0 0 0 0 0 0 
0 0 0 0 0 0 0 0 0 
0 0 0 0 0 0 0 0 0 
0 0 0 0 0 0 0 0 0 
0 0 0 0 0 0 0 0 0 
0 0 0 0 0 0 0 0 0 
0 0 0 0 0 0 0 0 0 
0 0 0 0 0 0 0 0 0 
0 0 0 0 0 0 0 0 0 
0 0 0 0 0 0 0 0 0 
0 0 0 0 0 0 0 0 0 
0 0 0 0 0 0 0 0 0 
0 0 0 0 0 0 0 0 0 
0 0 0 0 0 0 0 0 0 
0 0 0 0 0 0 0 0 0 
0 0 0 0 0 0 0 0 0 
0 0 0 0 0 0 0 0 0 
0 0 0 0 0 0 0 0 0 
0 0 0 0 0 0 0 0 0 
0 0 0 0 0 0 0 0 0 
0 0 0 0 0 0 0 0 0 
0 0 0 0 0 0 0 0 0 
0 0 0 0 0 0 0 0 0 
0 0 0 0 0 0 0 0 0 
0 0 0 0 0 0 0 0 0 
0 0 0 0 0 0 0 0 0 
0 0 0 0 0 0 0 0 0 
0 0 0 0 0 0 0 0 0 
0 0 0 0 0 0 0 0 0 
0 0 0 0 0 0 0 0 0 
0 0 0 0 0 0 0 0 0 
0 0 0 0 0 0 0 0 0 
0 0 0 0 0 0 0 0 0 
0 0 0 0 0 0 0 0 0 
0 0 0 0 0 0 0 0 0 
0 0 0 0 0 0 0 0 0 
0 0 0 0 0 0 0 0 0 
0 0 0 0 0 0 0 0 0 
0 0 0 0 0 0 0 0 0 
0 0 0 0 0 0 0 0 0 
0 0 0 0 0 0 0 0 0 
0 0 0 0 0 0 0 0 0 
0 0 0 0 0 0 0 0 0 
0 0 0 0 0 0 0 0 0 
0 0 0 0 0 0 0 0 0 
0 0 0 0 0 0 0 0 0 
0 0 0 0 0 0 0 0 0 
0 0 0 0 0 0 0 0 0 
0 0 0 0 0 0 0 0 0 
0 0 0 0 0 0 0 0 0 
0 0 0 0 0 0 0 0 0 
0 0 0 0 0 0 0 0 0 
0 0 0 0 0 0 0 0 0 
0 0 0 0 0 0 0 0 0 
0 0 0 0 0 0 0 0 0 
0 0 0 0 0 0 0 0 0 
0 0 0 0 0 0 0 0 0 
0 0 0 0 0 0 0 0 0 
0 0 0 0 0 0 0 0 0 
0 0 0 0 0 0 0 0 0 
0 0 0 0 0 0 0 0 0 
0 0 0 0 0 0 0 0 0 
0 0 0 0 0 0 0 0 0 
0 0 0 0 0 0 0 0 0 
0 0 0 0 0 0 0 0 0 
0 0 0 0 0 0 0 0 0 
0 0 0 0 0 0 0 0 0 
0 0 0 0 0 0 0 0 0 
0 0 0 0 0 0 0 0 0 
0 0 0 0 0 0 0 0 0 
0 0 0 0 0 0 0 0 0 
0 0 0 0 0 0 0 0 0 
0 0 0 0 0 0 0 0 0 
0 0 0 0 0 0 0 0 0 
0 0 0 0 0 0 0 0 0 
0 0 0 0 0 0 0 0 0 
0 0 0 0 0 0 0 0 0 
0 0 0 0 0 0 0 0 0 
0 0 0 0 0 0 0 0 0 
0 0 0 0 0 0 0 0 0 
0 0 0 0 0 0 0 0 0 
0 0 0 0 0 0 0 0 0 
0 0 0 0 0 0 0 0 0 
0 0 0 0 0 0 0 0 0 
0 0 0 0 0 0 0 0 0 
0 0 0 0 0 0 0 0 0 
0 0 0 0 0 0 0 0 0 
0 0 0 0 0 0 0 0 0 
0 0 0 0 0 0 0 0 0 
0 0 0 0 0 0 0 0 0 
0 0 0 0 0 0 0 0 0 
0 0 0 0 0 0 0 0 0 
0 0 0 0 0 0 0 0 0 
0 0 0 0 0 0 0 0 0 
0 0 0 0 0 0 0 0 0 
0 0 0 0 0 0 0 0 0 
0 0 0 0 0 0 0 0 0 
0 0 0 0 0 0 0 0 0 
0 0 0 0 0 0 0 0 0 
0 0 0 0 0 0 0 0 0 
0 0 0 0 0 0 0 0 0 
0 0 0 0 0 0 0 0 0 
0 0 0 0 0 0 0 0 0 
0 0 0 0 0 0 0 0 0 
0 0 0 0 0 0 0 0 0 
0 0 0 0 0 0 0 0 0 
0 0 0 0 0 0 0 0 0 
0 0 0 0 0 0 0 0 0 
0 0 0 0 0 0 0 0 0 
0 0 0 0 0 0 0 0 0 
0 0 0 0 0 0 0 0 0 
0 0 0 0 0 0 0 0 0 
0 0 0 0 0 0 0 0 0 
0 0 0 0 0 0 0 0 0 
0 0 0 0 0 0 0 0 0 
0 0 0 0 0 0 0 0 0 
0 0 0 0 0 0 0 0 0 
0 0 0 0 0 0 0 0 0 
0 0 0 0 0 0 0 0 0 
0 0 0 0 0 0 0 0 0 
0 0 0 0 0 0 0 0 0 
0 0 0 0 0 0 0 0 0 
0 0 0 0 0 0 0 0 0 
0 0 0 0 0 0 0 0 0 
0 0 0 0 0 0 0 0 0 
0 0 0 0 0 0 0 0 0 
0 0 0 0 0 0 0 0 0 
0 0 0 0 0 0 0 0 0 
0 0 0 0 0 0 0 0 0 
0 0 0 0 0 0 0 0 0 
0 0 0 0 0 0 0 0 0 
0 0 0 0 0 0 0 0 0 
0 0 0 0 0 0 0 0 0 
0 0 0 0 0 0 0 0 0 
0 0 0 0 0 0 0 0 0 
0 0 0 0 0 0 0 0 0 
0 0 0 0 0 0 0 0 0 
0 0 0 0 0 0 0 0 0 
0 0 0 0 0 0 0 0 0 
0 0 0 0 0 0 0 0 0 
0 0 0 0 0 0 0 0 0 
0 0 0 0 0 0 0 0 0 
0 0 0 0 0 0 0 0 0 
0 0 0 0 0 0 0 0 0 
0 0 0 0 0 0 0 0 0 
0 0 0 0 0 0 0 0 0 
0 0 0 0 0 0 0 0 0 
0 0 0 0 0 0 0 0 0 
0 0 0 0 0 0 0 0 0 
0 0 0 0 0 0 0 0 0 
0 0 0 0 0 0 0 0 0 
0 0 0 0 0 0 0 0 0 
0 0 0 0 0 0 0 0 0 
0 0 0 0 0 0 0 0 0 
0 0 0 0 0 0 0 0 0 
0 0 0 0 0 0 0 0 0 
0 0 0 0 0 0 0 0 0 
0 0 0 0 0 0 0 0 0 
0 0 0 0 0 0 0 0 0 
0 0 0 0 0 0 0 0 0 
0 0 0 0 0 0 0 0 0 
0 0 0 0 0 0 0 0 0 
0 0 0 0 0 0 0 0 0 
0 0 0 0 0 0 0 0 0 
0 0 0 0 0 0 0 0 0 
0 0 0 0 0 0 0 0 0 
0 0 0 0 0 0 0 0 0 
0 0 0 0 0 0 0 0 0 
0 0 0 0 0 0 0 0 0 
0 0 0 0 0 0 0 0 0 
0 0 0 0 0 0 0 0 0 
0 0 0 0 0 0 0 0 0 
0 0 0 0 0 0 0 0 0 
0 0 0 0 0 0 0 0 0 
0 0 0 0 0 0 0 0 0 
0 0 0 0 0 0 0 0 0 
0 0 0 0 0 0 0 0 0 
0 0 0 0 0 0 0 0 0 
0 0 0 0 0 0 0 0 0 
0 0 0 0 0 0 0 0 0 
0 0 0 0 0 0 0 0 0 
0 0 0 0 0 0 0 0 0 
0 0 0 0 0 0 0 0 0 
0 0 0 0 0 0 0 0 0 
0 0 0 0 0 0 0 0 0 
0 0 0 0 0 0 0 0 0 
0 0 0 0 0 0 0 0 0 
0 0 0 0 0 0 0 0 0 
0 0 0 0 0 0 0 0 0 
0 0 0 0 0 0 0 0 0 
0 0 0 0 0 0 0 0 0 
0 0 0 0 0 0 0 0 0 
0 0 0 0 0 0 0 0 0 
0 0 0 0 0 0 0 0 0 
0 0 0 0 0 0 0 0 0 
0 0 0 0 0 0 0 0 0 
0 0 0 0 0 0 0 0 0 
0 0 0 0 0 0 0 0 0 
0 0 0 0 0 0 0 0 0 
0 0 0 0 0 0 0 0 0 
0 0 0 0 0 0 0 0 0 
0 0 0 0 0 0 0 0 0 
0 0 0 0 0 0 0 0 0 
0 0 0 0 0 0 0 0 0 
0 0 0 0 0 0 0 0 0 
0 0 0 0 0 0 0 0 0 
0 0 0 0 0 0 0 0 0 
0 0 0 0 0 0 0 0 0 
0 0 0 0 0 0 0 0 0 
0 0 0 0 0 0 0 0 0 
0 0 0 0 0 0 0 0 0 
0 0 0 0 0 0 0 0 0 
0 0 0 0 0 0 0 0 0 
0 0 0 0 0 0 0 0 0 
0 0 0 0 0 0 0 0 0 
0 0 0 0 0 0 0 0 0 
0 0 0 0 0 0 0 0 0 
0 0 0 0 0 0 0 0 0 
0 0 0 0 0 0 0 0 0 
0 0 0 0 0 0 0 0 0 
0 0 0 0 0 0 0 0 0 
0 0 0 0 0 0 0 0 0 
0 0 0 0 0 0 0 0 0 
0 0 0 0 0 0 0 0 0 
0 0 0 0 0 0 0 0 0 
0 0 0 0 0 0 0 0 0 
0 0 0 0 0 0 0 0 0 
0 0 0 0 0 0 0 0 0 
0 0 0 0 0 0 0 0 0 
0 0 0 0 0 0 0 0 0 
0 0 0 0 0 0 0 0 0 
0 0 0 0 0 0 0 0 0 
0 0 0 0 0 0 0 0 0 
0 0 0 0 0 0 0 0 0 
0 0 0 0 0 0 0 0 0 
0 0 0 0 0 0 0 0 0 
0 0 0 0 0 0 0 0 0 
0 0 0 0 0 0 0 0 0 
0 0 0 0 0 0 0 0 0 
0 0 0 0 0 0 0 0 0 
0 0 0 0 0 0 0 0 0 
0 0 0 0 0 0 0 0 0 
0 0 0 0 0 0 0 0 0 
0 0 0 0 0 0 0 0 0 
0 0 0 0 0 0 0 0 0 
0 0 0 0 0 0 0 0 0 
0 0 0 0 0 0 0 0 0 
0 0 0 0 0 0 0 0 0 
0 0 0 0 0 0 0 0 0 
0 0 0 0 0 0 0 0 0 
0 0 0 0 0 0 0 0 0 
0 0 0 0 0 0 0 0 0 
0 0 0 0 0 0 0 0 0 
0 0 0 0 0 0 0 0 0 
0 0 0 0 0 0 0 0 0 
0 0 0 0 0 0 0 0 0 
0 0 0 0 0 0 0 0 0 
0 0 0 0 0 0 0 0 0 
0 0 0 0 0 0 0 0 0 
0 0 0 0 0 0 0 0 0 
0 0 0 0 0 0 0 0 0 
0 0 0 0 0 0 0 0 0 
0 0 0 0 0 0 0 0 0 

v 3 1488 double
-0.00814919 0.017551 -0.010163 0.00552311 0.0191519 -8.12073e-09 0.0561181 -0.000948933 -0.0109749 
-0.0921192 0.0885359 0.101595 0.0167919 -0.00377357 0.0588296 -0.0310396 -0.0314245 0.0224132 
-0.000573122 0.000444392 0.000147891 0.000143078 0.0131338 7.91741e-08 -0.00511115 -0.00520015 2.19791e-07 
6.29707e-06 0.00201348 1.11883e-13 -0.0127275 -0.0054996 5.06287e-05 0.0131363 -0.00194459 9.75155e-14 
0.0108642 -0.00341765 -4.46694e-08 0.0354805 0.037745 -0.00277864 0.0388658 0.0376386 1.58321e-06 
0.00674444 0.0116127 9.75224e-14 0.0258905 0.00573512 -5.02971e-08 0.034557 0.0190526 5.18896e-07 
0.0144016 -0.000211896 -1.82793e-09 -0.00225671 0.00568102 2.16494e-09 -0.000313966 0.00100247 3.54308e-06 
0.00275419 0.00450962 -7.79188e-09 -0.00356317 0.00812566 -2.90021e-07 0.00368929 0.00261637 -4.43871e-13 