# vtk DataFile Version 4.0
Generated by LIGGGHTS
ASCII
DATASET POLYDATA
POINTS 1488 float
-0.131951 -0.261963 -0.99501 -0.140665 -0.254629 -0.99501 -0.149039 -0.24318 -0.990032 
-0.131058 -0.246006 -0.99501 -0.163354 -0.244172 -0.99501 -0.120019 -0.266294 -0.99501 
-0.117454 -0.254178 -0.99501 -0.0679401 -0.271687 -0.995012 -0.0781641 -0.274211 -0.995013 
-0.0926987 -0.279083 -0.99501 -0.0692436 -0.282853 -0.99501 -0.10619 -0.269315 -0.990032 
-0.0667147 -0.259383 -0.99502 -0.0791558 -0.284182 -0.99501 -0.105799 -0.25456 -0.99501 
-0.0962238 -0.258021 -0.99501 -0.0858156 -0.259117 -0.995013 -0.0920006 -0.269002 -0.99501 
-0.0919561 -0.24807 -0.99501 -0.0632779 -0.2659 -0.988278 -0.0835041 -0.267432 -0.989976 
-0.112282 -0.245459 -0.99501 -0.0703679 -0.250076 -0.99501 -0.0752548 -0.264635 -0.99501 
-0.0790089 -0.244362 -0.99501 -0.0683294 -0.240126 -0.99501 -0.0561048 -0.249318 -0.99501 
-0.0422986 -0.251074 -0.99501 -0.0535189 -0.263656 -0.99501 -0.0413118 -0.279213 -0.99501 
-0.0434147 -0.261449 -0.99501 -0.0364081 -0.269666 -0.99501 -0.0273387 -0.292873 -0.99501 
-0.0556274 -0.278658 -0.990032 -0.0143733 -0.252997 -0.99501 -0.0477688 -0.290573 -0.99501 
-0.0170855 -0.294338 -0.99501 -0.0308816 -0.283048 -0.99501 -0.00518175 -0.248133 -0.99501 
-0.00625502 -0.294748 -0.99501 -0.00572734 -0.284441 -0.99501 -0.0241318 -0.274338 -0.99501 
-0.0285605 -0.25592 -0.990032 -0.0374374 -0.291011 -0.99501 -0.0119092 -0.276442 -0.99501 
-0.0210562 -0.284856 -0.99501 -0.00619773 -0.266193 -0.99501 -0.0164415 -0.266276 -0.99501 
-0.000463797 -0.257894 -0.995013 -0.000821774 -0.275319 -0.99501 0.00298504 -0.250355 -0.989435 
0.00605198 -0.242653 -0.995013 0.00479726 -0.294825 -0.99501 0.0244559 -0.292371 -0.99501 
0.0122526 -0.27354 -0.99501 0.0321389 -0.274539 -0.99501 0.00748068 -0.285007 -0.99501 
0.0148558 -0.259504 -0.990032 0.0374144 -0.28586 -0.99501 0.0454487 -0.246504 -0.99501 
0.0242252 -0.248418 -0.99501 0.0535859 -0.28303 -0.990032 0.0502401 -0.267705 -0.995009 
0.0308212 -0.261604 -0.99501 0.0186086 -0.283419 -0.99501 0.057836 -0.255741 -0.990036 
0.0806085 -0.278787 -0.99501 0.0911861 -0.278073 -0.99501 0.0923645 -0.267886 -0.99501 
0.110764 -0.268579 -0.99501 0.106701 -0.259016 -0.99501 0.0749033 -0.264042 -0.99501 
0.0694401 -0.273225 -0.99501 0.075541 -0.253439 -0.99501 0.0746791 -0.242054 -0.99501 
0.101527 -0.276834 -0.99501 0.11828 -0.255028 -0.99501 0.122386 -0.244585 -0.99501 
0.122531 -0.268301 -0.99501 0.132935 -0.260917 -0.99501 0.144318 -0.255735 -0.99501 
0.154038 -0.251496 -0.99501 0.143566 -0.244372 -0.99501 0.131266 -0.250404 -0.99501 
0.162786 -0.246019 -0.995015 0.154035 -0.240973 -0.99501 0.165966 -0.240226 -0.987517 
-0.210525 -0.206574 -0.99501 -0.18559 -0.229036 -0.99501 -0.206024 -0.197 -0.99501 
-0.193996 -0.221819 -0.99501 -0.202214 -0.212547 -0.99501 -0.216453 -0.197751 -0.995009 
-0.211179 -0.187484 -0.99501 -0.200486 -0.188019 -0.99501 -0.221763 -0.189191 -0.995011 
-0.192445 -0.207636 -0.99501 -0.229997 -0.183382 -0.99501 -0.187159 -0.198077 -0.99501 
-0.190342 -0.183182 -0.99501 -0.178957 -0.221234 -0.99501 -0.171941 -0.213221 -0.99501 
-0.159355 -0.19319 -0.995012 -0.13466 -0.200507 -0.99501 -0.129005 -0.229605 -0.990032 
-0.16847 -0.19831 -0.995012 -0.158114 -0.208917 -0.990028 -0.139533 -0.21108 -0.99501 
-0.154838 -0.226666 -0.99501 -0.149073 -0.197116 -0.99501 -0.138671 -0.188145 -0.99501 
-0.126749 -0.187687 -0.99501 -0.115049 -0.231915 -0.99501 -0.105359 -0.237628 -0.99501 
-0.0951563 -0.237502 -0.99501 -0.0850818 -0.235007 -0.99501 -0.0700329 -0.22898 -0.99501 
-0.0761177 -0.199743 -0.99501 -0.108405 -0.218295 -0.99501 -0.0807453 -0.224484 -0.99501 
-0.0926513 -0.192629 -0.99501 -0.0926457 -0.218428 -0.99501 -0.0802405 -0.214389 -0.99501 
-0.0640489 -0.208547 -0.99501 -0.0541582 -0.186078 -0.994963 -0.0435093 -0.238729 -0.99501 
-0.0582759 -0.223621 -0.99501 -0.057691 -0.239116 -0.99501 -0.0568695 -0.198805 -0.99501 
-0.0228228 -0.229533 -0.99501 -0.0510569 -0.231607 -0.99501 -0.0320706 -0.238868 -0.99501 
-0.0330881 -0.182386 -0.995021 -0.0428852 -0.194082 -0.99501 -0.0283307 -0.216455 -0.994726 
-0.0444229 -0.217969 -0.99501 -0.0180313 -0.214245 -0.994994 -0.0360665 -0.225701 -0.99501 
-0.035604 -0.208063 -0.994341 -0.0465764 -0.204678 -0.99501 -0.0329802 -0.192552 -0.99462 
-0.0213269 -0.192474 -0.994981 -0.0226365 -0.182538 -0.995 -0.0137626 -0.199823 -0.995006 
-0.00250764 -0.190213 -0.99501 -0.00700904 -0.210021 -0.995008 -0.0270896 -0.202345 -0.995078 
-0.0126652 -0.186808 -0.99499 0.00189986 -0.232903 -0.99501 0.0155744 -0.238437 -0.99501 
0.0121601 -0.223945 -0.99501 0.0345496 -0.232234 -0.99501 0.0167693 -0.199945 -0.99501 
0.020798 -0.229827 -0.99501 0.0239576 -0.189885 -0.99501 0.0237427 -0.22005 -0.99501 
0.0303251 -0.211299 -0.99501 0.00921764 -0.213802 -0.99501 0.0313577 -0.183024 -0.995008 
0.0480199 -0.194099 -0.99501 0.0266769 -0.238692 -0.99501 0.0454462 -0.212857 -0.99501 
0.0562877 -0.207026 -0.99501 0.0586201 -0.186215 -0.99501 0.0449045 -0.229303 -0.99501 
0.040919 -0.186091 -0.995012 0.0531634 -0.220104 -0.99501 0.0338302 -0.222145 -0.99501 
0.0106331 -0.182837 -0.991377 0.0851148 -0.237235 -0.99501 0.0618922 -0.239736 -0.99501 
0.0613511 -0.226213 -0.99501 0.062624 -0.215815 -0.99501 0.0696793 -0.187725 -0.99501 
0.0654252 -0.19831 -0.99501 0.0759709 -0.231041 -0.99501 0.0705943 -0.209239 -0.99501 
0.108239 -0.207596 -0.99501 0.0853885 -0.222906 -0.995011 0.103431 -0.239357 -0.990032 
0.0980581 -0.188293 -0.99501 0.0839843 -0.18114 -0.99501 0.081344 -0.212906 -0.99501 
0.0956037 -0.207538 -0.994974 0.0939532 -0.228104 -0.994937 0.0751686 -0.220832 -0.99501 
0.0762675 -0.200456 -0.99501 0.0863012 -0.2028 -0.99501 0.10095 -0.198386 -0.99501 
0.115673 -0.199404 -0.99501 0.11128 -0.225369 -0.99501 0.111131 -0.18749 -0.99501 
0.094139 -0.217207 -0.98301 0.117026 -0.21329 -0.99501 0.121659 -0.23048 -0.99501 
0.153195 -0.230713 -0.99501 0.131506 -0.237125 -0.99501 0.143132 -0.231848 -0.99501 
0.148108 -0.220425 -0.995011 0.13475 -0.20201 -0.99501 0.161348 -0.224658 -0.995033 
0.132996 -0.22197 -0.990032 0.127073 -0.209113 -0.99501 0.145758 -0.184471 -0.995016 
0.150636 -0.20192 -0.994999 0.166569 -0.190911 -0.99501 0.172276 -0.182701 -0.99501 
0.173925 -0.201767 -0.99501 0.144045 -0.194319 -0.995007 0.154477 -0.192453 -0.99501 
0.172792 -0.2142 -0.99501 0.161489 -0.199602 -0.995008 0.123867 -0.193007 -0.99501 
0.133808 -0.190851 -0.99501 0.173929 -0.224849 -0.99501 0.172463 -0.239038 -0.995012 
0.162417 -0.234663 -0.995015 0.158714 -0.212139 -0.987267 0.142423 -0.210127 -0.99501 
0.122247 -0.180223 -0.99501 0.197331 -0.193244 -0.990543 0.183121 -0.193883 -0.99501 
0.190404 -0.203961 -0.995009 0.193966 -0.221152 -0.99501 0.199983 -0.212223 -0.99501 
0.183795 -0.218647 -0.99501 0.209246 -0.207886 -0.99501 0.219247 -0.196823 -0.99501 
0.190947 -0.184493 -0.99501 0.181604 -0.208718 -0.99501 0.200195 -0.201831 -0.99501 
0.202706 -0.186056 -0.99499 0.209128 -0.195585 -0.99501 0.215598 -0.18725 -0.99501 
0.226007 -0.189026 -0.99501 0.184655 -0.229297 -0.99501 0.232889 -0.180695 -0.99501 
-0.252045 -0.142246 -0.99501 -0.250795 -0.153276 -0.99501 -0.245114 -0.161592 -0.99501 
-0.26363 -0.128316 -0.99501 -0.254342 -0.122483 -0.99501 -0.23521 -0.137693 -0.990032 
-0.22651 -0.165003 -0.99501 -0.2111 -0.17291 -0.995008 -0.239239 -0.171639 -0.99501 
-0.20111 -0.162756 -0.99501 -0.194471 -0.140874 -0.99501 -0.206718 -0.131715 -0.99501 
-0.231377 -0.154542 -0.99501 -0.181284 -0.127463 -0.99501 -0.216895 -0.125514 -0.99501 
-0.213984 -0.16335 -0.995012 -0.220485 -0.145514 -0.99501 -0.232046 -0.121444 -0.99501 
-0.206443 -0.120312 -0.99501 -0.159254 -0.177217 -0.99501 -0.175336 -0.151346 -0.99501 
-0.170987 -0.135044 -0.99501 -0.144164 -0.153208 -0.99501 -0.150876 -0.131332 -0.99501 
-0.171435 -0.165596 -0.99501 -0.1483 -0.143521 -0.99501 -0.135976 -0.130628 -0.99501 
-0.149231 -0.178466 -0.99501 -0.135536 -0.143038 -0.99501 -0.160739 -0.134408 -0.99501 
-0.126885 -0.136614 -0.99501 -0.155703 -0.121736 -0.995007 -0.130447 -0.122251 -0.99501 
-0.136543 -0.166985 -0.99501 -0.12454 -0.146966 -0.99501 -0.0849323 -0.179138 -0.99501 
-0.118541 -0.129498 -0.99501 -0.0780305 -0.169598 -0.99501 -0.0878044 -0.164875 -0.99501 
-0.116506 -0.139346 -0.99501 -0.0766425 -0.158458 -0.99501 -0.0685787 -0.151611 -0.99501 
-0.095641 -0.145542 -0.995011 -0.113932 -0.164926 -0.990032 -0.114817 -0.149309 -0.99501 
-0.106213 -0.140431 -0.99501 -0.102948 -0.15455 -0.995009 -0.0973413 -0.135355 -0.995011 
-0.106464 -0.129197 -0.99501 -0.0805394 -0.143483 -0.990031 -0.0861806 -0.12996 -0.99501 
-0.0684092 -0.122256 -0.99501 -0.0901814 -0.154542 -0.99501 -0.0793297 -0.121889 -0.99501 
-0.0682573 -0.134984 -0.99501 -0.0956495 -0.124763 -0.99501 -0.0620145 -0.166078 -0.99501 
-0.0470012 -0.173107 -0.99001 -0.0523558 -0.154092 -0.994974 -0.0318869 -0.171724 -0.99501 
-0.0329397 -0.161648 -0.99501 -0.0168671 -0.163231 -0.995008 -0.0550329 -0.142727 -0.99501 
-0.0555827 -0.130358 -0.99501 -0.0345119 -0.15125 -0.99501 -0.0123178 -0.142316 -0.99501 
-0.0113165 -0.176136 -0.99501 -0.00291319 -0.146281 -0.99501 -0.0218526 -0.172031 -0.995014 
-0.0431979 -0.133587 -0.99501 -0.0244339 -0.156069 -0.99501 -0.0431754 -0.144831 -0.99501 
-0.0120772 -0.152347 -0.99501 -0.00754979 -0.128901 -0.99501 -0.00566192 -0.166712 -0.99501 
-0.0321968 -0.138446 -0.99501 -0.000917287 -0.136479 -0.99501 -0.0228172 -0.145565 -0.99501 
-0.0226403 -0.135565 -0.99501 -0.0294381 -0.120931 -0.990032 -0.00114106 -0.120741 -0.99501 
0.0547202 -0.176369 -0.99501 0.00028208 -0.156458 -0.99501 0.0240758 -0.173903 -0.995004 
0.0161541 -0.167609 -0.995012 0.0107727 -0.149085 -0.99501 0.00998445 -0.139027 -0.99501 
0.0285515 -0.160025 -0.99501 0.0214814 -0.152868 -0.99501 0.027142 -0.144593 -0.99501 
0.0345395 -0.172949 -0.99501 0.0404217 -0.144361 -0.99501 0.0106734 -0.159142 -0.99501 
0.010951 -0.126478 -0.99501 0.0506851 -0.151272 -0.99501 0.0290596 -0.134772 -0.99501 
[...]
POINT_DATA 1488
FIELD FieldData 7
id 1 1488 int
1363 202 1136 1289 948 135 51 909 572 
287 112 589 649 946 78 849 162 1100 
625 1003 936 1298 325 1470 246 1234 918 
843 1345 1355 536 562 122 17 533 546 
37 706 759 1124 315 1264 588 1044 723 
698 1333 797 687 664 989 1161 402 408 
183 1258 1373 583 1061 1081 677 1139 1269 
1187 1415 1135 867 328 364 1489 1374 740 
653 35 473 145 1497 930 680 472 194 
266 977 1253 1239 548 1346 1172 1337 1048 
933 790 944 1473 1453 1306 366 718 1196 
702 1036 1056 1194 507 577 900 1144 486 
826 416 484 144 376 322 97 830 770 
949 1211 1272 1437 973 265 1021 802 196 
1018 294 1118 877 987 1256 291 1301 543 
906 170 429 1452 788 350 454 886 943 
725 851 214 1113 77 683 634 212 310 
1491 1308 1267 632 1128 1229 1409 921 985 
811 1086 1027 186 31 1012 26 561 801 
158 719 1057 362 371 379 864 477 25 
624 373 532 172 329 127 1068 1412 540 
911 1244 942 1143 545 525 1232 1477 838 
979 1189 1359 5 646 462 636 1200 476 
1318 455 915 1454 1300 179 869 297 1052 
1414 582 1121 163 528 1448 1045 874 1462 
926 898 334 286 1469 309 1483 1498 726 
1370 1468 76 735 1314 452 1123 1236 579 
929 888 426 1387 704 530 972 1097 568 
556 737 1428 1395 1440 842 1163 952 1213 
1467 458 1375 338 453 1159 1164 732 1443 
666 333 505 438 1490 818 1242 467 707 
506 585 777 882 615 348 519 1145 685 
990 681 1360 1022 389 925 574 39 440 
1367 850 810 206 358 395 1341 674 1216 
645 175 809 1365 711 128 631 657 1492 
1110 28 620 760 490 263 1401 1221 647 
691 1202 1166 292 1274 313 622 1158 967 
401 1011 655 1287 1090 991 67 306 1073 
34 1150 1175 827 277 1023 123 210 786 
1257 131 840 1215 709 857 1188 1321 551 
1466 1347 182 216 669 261 409 575 518 
1273 337 1376 1331 48 1075 1179 141 1130 
225 758 703 495 934 1260 73 815 710 
696 151 1366 230 130 118 94 1051 65 
957 699 60 993 730 832 817 1246 305 
414 419 195 1102 1394 763 1191 1030 1020 
892 1479 764 1241 746 613 605 1060 1093 
1286 1245 1388 917 544 159 1458 55 446 
443 441 93 841 693 964 84 1439 1410 
1108 243 554 178 1450 800 678 101 866 
70 33 527 749 119 1105 1034 950 470 
1168 1223 1174 908 116 1340 708 792 1131 
1111 226 72 499 267 1091 10 9 375 
983 1182 1074 1307 335 108 1285 165 343 
370 1481 1411 331 1002 1325 137 448 1214 
1261 512 1210 330 1114 521 1434 1446 357 
321 539 779 157 821 396 451 804 224 
881 781 3 1447 662 1249 250 765 423 
47 169 1116 1148 238 1165 1416 140 30 
1252 219 509 524 504 819 865 1371 1400 
276 1071 434 1038 485 873 515 1151 399 
856 1361 155 629 1353 1033 378 1369 675 
1271 672 858 8 211 471 489 6 463 
1149 198 1119 74 1311 951 542 514 248 
354 1380 120 411 982 1425 252 975 1222 
432 1324 372 360 1309 1431 1417 1423 566 
104 16 594 995 870 139 1160 40 304 
931 534 1040 992 1224 403 912 181 720 
394 1493 618 1104 233 1185 713 259 970 
285 256 347 1419 397 1418 4 831 1208 
919 311 1461 523 750 855 1032 475 428 
234 965 146 500 803 508 1014 80 939 
1441 661 814 1432 580 976 1039 902 302 
1352 418 547 825 1460 928 1304 795 1207 
1070 600 229 602 1142 1077 1310 1323 115 
897 1016 1204 424 1055 721 272 387 1328 
1344 502 599 513 616 340 1343 392 1047 
190 1226 323 257 1157 1079 610 1312 1082 
1262 956 1183 56 1008 193 345 368 628 
1288 1001 745 755 461 1430 1457 184 999 
317 626 742 442 907 752 1480 12 1141 
1356 1476 1297 32 497 43 836 100 623 
1154 1006 744 887 217 862 213 405 1035 
522 103 95 68 871 45 1065 769 883 
1120 1377 1485 1404 665 903 274 642 249 
83 290 963 1389 606 966 644 242 66 
1007 351 771 90 129 117 558 650 187 
312 1248 20 1255 673 480 134 793 571 
847 1251 273 1212 940 889 772 598 679 
336 349 517 59 1195 1299 913 1072 878 
932 1326 251 609 823 1146 282 1228 1398 
1184 923 494 905 1444 592 1427 820 612 
1433 614 643 1296 422 945 652 531 264 
958 564 374 516 1342 717 587 71 885 
468 369 1076 222 147 899 834 824 1392 
89 812 767 447 491 608 483 168 1405 
596 712 24 1137 1354 729 538 1465 535 
314 959 1429 1499 853 1390 64 1420 731 
1403 1126 789 637 974 1198 734 299 355 
924 1186 245 1290 464 938 1117 384 439 
197 91 1067 627 1162 138 604 716 941 
695 81 1122 783 776 1129 200 1442 239 
228 1080 82 293 1177 1278 191 520 1013 
171 935 676 410 361 621 914 1464 1276 
1028 748 1283 1275 641 1435 353 875 449 
1156 218 651 1096 498 962 247 1378 324 
861 1106 421 53 280 1317 303 635 684 
1227 806 7 98 1024 1169 244 492 188 
109 1475 563 978 153 1472 126 1263 766 
1279 260 501 87 1303 1099 1176 241 125 
557 1225 768 19 757 363 1206 1426 1095 
722 1085 1384 1335 1083 955 270 663 1235 
377 1292 391 231 986 682 481 15 1338 
611 1173 1247 1474 1046 670 654 893 415 
469 1284 837 398 953 601 192 1112 968 
567 1327 916 1230 69 1488 1266 739 75 
648 1243 633 511 1291 762 607 319 254 
339 36 947 1219 1218 586 828 185 1332 
630 1487 584 1478 595 327 342 773 1025 
1066 1203 1089 1494 382 550 835 988 180 
433 390 444 482 581 984 1170 1484 278 
1062 1319 1000 1456 1152 1240 552 1486 271 
79 258 658 541 1413 667 787 113 1322 
38 798 1455 114 281 1436 1265 488 1295 
92 386 927 1092 307 430 1220 784 782 
1050 177 1134 1424 1270 980 44 1 901 
714 890 1171 619 160 1064 236 308 167 
1058 686 1459 845 176 393 288 174 63 
1495 700 107 1059 365 1153 969 1496 807 
227 1393 859 937 88 640 1329 148 275 
894 1054 316 279 590 603 565 221 215 
1364 1334 1069 237 1281 617 829 1197 296 
346 1305 1445 671 1087 289 1043 689 813 
11 150 1127 381 269 1181 262 1351 255 
41 724 593 496 223 796 1372 549 1180 
29 1471 1109 1088 1138 1357 1382 85 1449 
1041 896 99 133 465 1103 799 960 880 
879 412 1349 413 578 808 1254 320 1320 
121 1293 417 1209 816 1397 805 466 961 
106 111 694 1019 846 388 478 436 996 
1015 1178 778 1277 852 1358 400 284 14 
1336 295 738 300 833 164 406 891 1315 
1407 920 161 367 998 1009 656 1402 775 
209 728 1049 1231 1192 298 741 156 1217 
591 569 407 1167 1205 751 785 1302 1201 
1330 1391 701 58 136 1190 1280 352 445 
204 510 981 240 1313 1084 774 18 1294 
437 435 124 690 57 1408 1316 503 884 
895 96 383 207 1107 235 22 318 456 
143 1017 863 1438 208 201 1031 1259 791 
1199 425 1132 529 21 848 142 780 2 
994 537 638 1029 597 1463 1381 1362 1010 
1094 50 733 1078 526 1037 743 457 727 
1385 1238 431 326 268 555 1383 1115 736 
1233 359 922 854 1193 102 42 705 753 
570 493 173 839 356 1125 220 1451 203 
232 844 1386 754 971 747 1350 1053 692 
715 1155 380 1098 659 1004 1348 46 450 
1422 154 660 868 149 404 105 1005 420 
86 479 253 1063 460 1482 23 52 576 
1268 49 1406 1339 61 553 54 474 13 
27 199 756 668 910 1399 166 1368 487 
794 283 1026 876 1101 1133 332 904 822 
62 697 872 559 761 997 639 344 560 
152 1421 860 1282 341 1042 1396 385 573 
1147 1379 1140 
type 1 1488 int
1 1 1 1 1 1 1 1 1 
1 1 1 1 1 1 1 1 1 
1 1 1 1 1 1 1 1 1 
1 1 1 1 1 1 1 1 1 
1 1 1 1 1 1 1 1 1 
1 1 1 1 1 1 1 1 1 
1 1 1 1 1 1 1 1 1 
1 1 1 1 1 1 1 1 1 
1 1 1 1 1 1 1 1 1 
1 1 1 1 1 1 1 1 1 
1 1 1 1 1 1 1 1 1 
1 1 1 1 1 1 1 1 1 
1 1 1 1 1 1 1 1 1 
1 1 1 1 1 1 1 1 1 
1 1 1 1 1 1 1 1 1 
1 1 1 1 1 1 1 1 1 
1 1 1 1 1 1 1 1 1 
1 1 1 1 1 1 1 1 1 
1 1 1 1 1 1 1 1 1 
1 1 1 1 1 1 1 1 1 
1 1 1 1 1 1 1 1 1 
1 1 1 1 1 1 1 1 1 
1 1 1 1 1 1 1 1 1 
1 1 1 1 1 1 1 1 1 
1 1 1 1 1 1 1 1 1 
1 1 1 1 1 1 1 1 1 
1 1 1 1 1 1 1 1 1 
1 1 1 1 1 1 1 1 1 
1 1 1 1 1 1 1 1 1 
1 1 1 1 1 1 1 1 1 
1 1 1 1 1 1 1 1 1 
1 1 1 1 1 1 1 1 1 
1 1 1 1 1 1 1 1 1 
1 1 1 1 1 1 1 1 1 
1 1 1 1 1 1 1 1 1 
1 1 1 1 1 1 1 1 1 
1 1 1 1 1 1 1 1 1 
1 1 1 1 1 1 1 1 1 
1 1 1 1 1 1 1 1 1 
1 1 1 1 1 1 1 1 1 
1 1 1 1 1 1 1 1 1 
1 1 1 1 1 1 1 1 1 
1 1 1 1 1 1 1 1 1 
1 1 1 1 1 1 1 1 1 
1 1 1 1 1 1 1 1 1 
1 1 1 1 1 1 1 1 1 
1 1 1 1 1 1 1 1 1 
1 1 1 1 1 1 1 1 1 
1 1 1 1 1 1 1 1 1 
1 1 1 1 1 1 1 1 1 
1 1 1 1 1 1 1 1 1 
1 1 1 1 1 1 1 1 1 
1 1 1 1 1 1 1 1 1 
1 1 1 1 1 1 1 1 1 
1 1 1 1 1 1 1 1 1 
1 1 1 1 1 1 1 1 1 
1 1 1 1 1 1 1 1 1 
1 1 1 1 1 1 1 1 1 
1 1 1 1 1 1 1 1 1 
1 1 1 1 1 1 1 1 1 
1 1 1 1 1 1 1 1 1 
1 1 1 1 1 1 1 1 1 
1 1 1 1 1 1 1 1 1 
1 1 1 1 1 1 1 1 1 
1 1 1 1 1 1 1 1 1 
1 1 1 1 1 1 1 1 1 
1 1 1 1 1 1 1 1 1 
1 1 1 1 1 1 1 1 1 
1 1 1 1 1 1 1 1 1 
1 1 1 1 1 1 1 1 1 
1 1 1 1 1 1 1 1 1 
1 1 1 1 1 1 1 1 1 
1 1 1 1 1 1 1 1 1 
1 1 1 1 1 1 1 1 1 
1 1 1 1 1 1 1 1 1 
1 1 1 1 1 1 1 1 1 
1 1 1 1 1 1 1 1 1 
1 1 1 1 1 1 1 1 1 
1 1 1 1 1 1 1 1 1 
1 1 1 1 1 1 1 1 1 
1 1 1 1 1 1 1 1 1 
1 1 1 1 1 1 1 1 1 
1 1 1 1 1 1 1 1 1 
1 1 1 1 1 1 1 1 1 
1 1 1 1 1 1 1 1 1 
1 1 1 1 1 1 1 1 1 
1 1 1 1 1 1 1 1 1 
1 1 1 1 1 1 1 1 1 
1 1 1 1 1 1 1 1 1 
1 1 1 1 1 1 1 1 1 
1 1 1 1 1 1 1 1 1 
1 1 1 1 1 1 1 1 1 
1 1 1 1 1 1 1 1 1 
1 1 1 1 1 1 1 1 1 
1 1 1 1 1 1 1 1 1 
1 1 1 1 1 1 1 1 1 
1 1 1 1 1 1 1 1 1 
1 1 1 1 1 1 1 1 1 
1 1 1 1 1 1 1 1 1 
1 1 1 1 1 1 1 1 1 
1 1 1 1 1 1 1 1 1 
1 1 1 1 1 1 1 1 1 
1 1 1 1 1 1 1 1 1 
1 1 1 1 1 1 1 1 1 
1 1 1 1 1 1 1 1 1 
1 1 1 1 1 1 1 1 1 
1 1 1 1 1 1 1 1 1 
1 1 1 1 1 1 1 1 1 
1 1 1 1 1 1 1 1 1 
1 1 1 1 1 1 1 1 1 
1 1 1 1 1 1 1 1 1 
1 1 1 1 1 1 1 1 1 
1 1 1 1 1 1 1 1 1 
1 1 1 1 1 1 1 1 1 
1 1 1 1 1 1 1 1 1 
1 1 1 1 1 1 1 1 1 
1 1 1 1 1 1 1 1 1 
1 1 1 1 1 1 1 1 1 
1 1 1 1 1 1 1 1 1 
1 1 1 1 1 1 1 1 1 
1 1 1 1 1 1 1 1 1 
1 1 1 1 1 1 1 1 1 
1 1 1 1 1 1 1 1 1 
1 1 1 1 1 1 1 1 1 
1 1 1 1 1 1 1 1 1 
1 1 1 1 1 1 1 1 1 
1 1 1 1 1 1 1 1 1 
1 1 1 1 1 1 1 1 1 
1 1 1 1 1 1 1 1 1 
1 1 1 1 1 1 1 1 1 
1 1 1 1 1 1 1 1 1 
1 1 1 1 1 1 1 1 1 
1 1 1 1 1 1 1 1 1 
1 1 1 1 1 1 1 1 1 
1 1 1 1 1 1 1 1 1 
1 1 1 1 1 1 1 1 1 
1 1 1 1 1 1 1 1 1 
1 1 1 1 1 1 1 1 1 
1 1 1 1 1 1 1 1 1 
1 1 1 1 1 1 1 1 1 
1 1 1 1 1 1 1 1 1 
1 1 1 1 1 1 1 1 1 
1 1 1 1 1 1 1 1 1 
1 1 1 1 1 1 1 1 1 
1 1 1 1 1 1 1 1 1 
1 1 1 1 1 1 1 1 1 
1 1 1 1 1 1 1 1 1 
1 1 1 1 1 1 1 1 1 
1 1 1 1 1 1 1 1 1 
1 1 1 1 1 1 1 1 1 
1 1 1 1 1 1 1 1 1 
1 1 1 1 1 1 1 1 1 
1 1 1 1 1 1 1 1 1 
1 1 1 1 1 1 1 1 1 
1 1 1 1 1 1 1 1 1 
1 1 1 1 1 1 1 1 1 
1 1 1 1 1 1 1 1 1 
1 1 1 1 1 1 1 1 1 
1 1 1 1 1 1 1 1 1 
1 1 1 1 1 1 1 1 1 
1 1 1 1 1 1 1 1 1 
1 1 1 1 1 1 1 1 1 
1 1 1 1 1 1 1 1 1 
1 1 1 1 1 1 1 1 1 
1 1 1 1 1 1 1 1 1 
1 1 1 
i 3 1488 int
0 0 0 0 0 0 0 0 0 
0 0 0 0 0 0 0 0 0 
0 0 0 0 0 0 0 0 0 
0 0 0 0 0 0 0 0 0 
0 0 0 0 0 0 0 0 0 
0 0 0 0 0 0 0 0 0 
0 0 0 0 0 0 0 0 0 
0 0 0 0 0 0 0 0 0 
0 0 0 0 0 0 0 0 0 
0 0 0 0 0 0 0 0 0 
0 0 0 0 0 0 0 0 0 
0 0 0 0 0 0 0 0 0 
0 0 0 0 0 0 0 0 0 
0 0 0 0 0 0 0 0 0 
0 0 0 0 0 0 0 0 0 
0 0 0 0 0 0 0 0 0 
0 0 0 0 0 0 0 0 0 
0 0 0 0 0 0 0 0 0 
0 0 0 0 0 0 0 0 0 
0 0 0 0 0 0 0 0 0 
0 0 0 0 0 0 0 0 0 
0 0 0 0 0 0 0 0 0 
0 0 0 0 0 0 0 0 0 
0 0 0 0 0 0 0 0 0 
0 0 0 0 0 0 0 0 0 
0 0 0 0 0 0 0 0 0 
0 0 0 0 0 0 0 0 0 
0 0 0 0 0 0 0 0 0 
0 0 0 0 0 0 0 0 0 
0 0 0 0 0 0 0 0 0 
0 0 0 0 0 0 0 0 0 
0 0 0 0 0 0 0 0 0 
0 0 0 0 0 0 0 0 0 
0 0 0 0 0 0 0 0 0 
0 0 0 0 0 0 0 0 0 
0 0 0 0 0 0 0 0 0 
0 0 0 0 0 0 0 0 0 
0 0 0 0 0 0 0 0 0 
0 0 0 0 0 0 0 0 0 
0 0 0 0 0 0 0 0 0 
0 0 0 0 0 0 0 0 0 
0 0 0 0 0 0 0 0 0 
0 0 0 0 0 0 0 0 0 
0 0 0 0 0 0 0 0 0 
0 0 0 0 0 0 0 0 0 
0 0 0 0 0 0 0 0 0 
0 0 0 0 0 0 0 0 0 
0 0 0 0 0 0 0 0 0 
0 0 0 0 0 0 0 0 0 
0 0 0 0 0 0 0 0 0 
0 0 0 0 0 0 0 0 0 
0 0 0 0 0 0 0 0 0 
0 0 0 0 0 0 0 0 0 
0 0 0 0 0 0 0 0 0 
0 0 0 0 0 0 0 0 0 
0 0 0 0 0 0 0 0 0 
0 0 0 0 0 0 0 0 0 
0 0 0 0 0 0 0 0 0 
0 0 0 0 0 0 0 0 0 
0 0 0 0 0 0 0 0 0 
0 0 0 0 0 0 0 0 0 
0 0 0 0 0 0 0 0 0 
0 0 0 0 0 0 0 0 0 
0 0 0 0 0 0 0 0 0 
0 0 0 0 0 0 0 0 0 
0 0 0 0 0 0 0 0 0 
0 0 0 0 0 0 0 0 0 
0 0 0 0 0 0 0 0 0 
0 0 0 0 0 0 0 0 0 
0 0 0 0 0 0 0 0 0 
0 0 0 0 0 0 0 0 0 
0 0 0 0 0 0 0 0 0 
0 0 0 0 0 0 0 0 0 
0 0 0 0 0 0 0 0 0 
0 0 0 0 0 0 0 0 0 
0 0 0 0 0 0 0 0 0 
0 0 0 0 0 0 0 0 0 
0 0 0 0 0 0 0 0 0 
0 0 0 0 0 0 0 0 0 
0 0 0 0 0 0 0 0 0 
0 0 0 0 0 0 0 0 0 
0 0 0 0 0 0 0 0 0 
0 0 0 0 0 0 0 0 0 
0 0 0 0 0 0 0 0 0 
0 0 0 0 0 0 0 0 0 
0 0 0 0 0 0 0 0 0 
0 0 0 0 0 0 0 0 0 
0 0 0 0 0 0 0 0 0 
0 0 0 0 0 0 0 0 0 
0 0 0 0 0 0 0 0 0 
0 0 0 0 0 0 0 0 0 
0 0 0 0 0 0 0 0 0 
0 0 0 0 0 0 0 0 0 
0 0 0 0 0 0 0 0 0 
0 0 0 0 0 0 0 0 0 
0 0 0 0 0 0 0 0 0 
0 0 0 0 0 0 0 0 0 
0 0 0 0 0 0 0 0 0 
0 0 0 0 0 0 0 0 0 
0 0 0 0 0 0 0 0 0 
0 0 0 0 0 0 0 0 0 
0 0 0 0 0 0 0 0 0 
0 0 0 0 0 0 0 0 0 
0 0 0 0 0 0 0 0 0 
0 0 0 0 0 0 0 0 0 
0 0 0 0 0 0 0 0 0 
0 0 0 0 0 0 0 0 0 
0 0 0 0 0 0 0 0 0 
0 0 0 0 0 0 0 0 0 
0 0 0 0 0 0 0 0 0 
0 0 0 0 0 0 0 0 0 
0 0 0 0 0 0 0 0 0 
0 0 0 0 0 0 0 0 0 
0 0 0 0 0 0 0 0 0 
0 0 0 0 0 0 0 0 0 
0 0 0 0 0 0 0 0 0 
0 0 0 0 0 0 0 0 0 
0 0 0 0 0 0 0 0 0 
0 0 0 0 0 0 0 0 0 
0 0 0 0 0 0 0 0 0 
0 0 0 0 0 0 0 0 0 
0 0 0 0 0 0 0 0 0 
0 0 0 0 0 0 0 0 0 
0 0 0 0 0 0 0 0 0 
0 0 0 0 0 0 0 0 0 
0 0 0 0 0 0 0 0 0 
0 0 0 0 0 0 0 0 0 
0 0 0 0 0 0 0 0 0 
0 0 0 0 0 0 0 0 0 
0 0 0 0 0 0 0 0 0 
0 0 0 0 0 0 0 0 0 
0 0 0 0 0 0 0 0 0 
0 0 0 0 0 0 0 0 0 
0 0 0 0 0 0 0 0 0 
0 0 0 0 0 0 0 0 0 
0 0 0 0 0 0 0 0 0 
0 0 0 0 0 0 0 0 0 
0 0 0 0 0 0 0 0 0 
0 0 0 0 0 0 0 0 0 
0 0 0 0 0 0 0 0 0 
0 0 0 0 0 0 0 0 0 
0 0 0 0 0 0 0 0 0 
0 0 0 0 0 0 0 0 0 
0 0 0 0 0 0 0 0 0 
0 0 0 0 0 0 0 0 0 
0 0 0 0 0 0 0 0 0 
0 0 0 0 0 0 0 0 0 
0 0 0 0 0 0 0 0 0 
0 0 0 0 0 0 0 0 0 
0 0 0 0 0 0 0 0 0 
0 0 0 0 0 0 0 0 0 
0 0 0 0 0 0 0 0 0 
0 0 0 0 0 0 0 0 0 
0 0 0 0 0 0 0 0 0 
0 0 0 0 0 0 0 0 0 
0 0 0 0 0 0 0 0 0 
0 0 0 0 0 0 0 0 0 
0 0 0 0 0 0 0 0 0 
0 0 0 0 0 0 0 0 0 
0 0 0 0 0 0 0 0 0 
0 0 0 0 0 0 0 0 0 
0 0 0 0 0 0 0 0 0 
0 0 0 0 0 0 0 0 0 
0 0 0 0 0 0 0 0 0 
0 0 0 0 0 0 0 0 0 
0 0 0 0 0 0 0 0 0 
0 0 0 0 0 0 0 0 0 
0 0 0 0 0 0 0 0 0 
0 0 0 0 0 0 0 0 0 
0 0 0 0 0 0 0 0 0 
0 0 0 0 0 0 0 0 0 
0 0 0 0 0 0 0 0 0 
0 0 0 0 0 0 0 0 0 
0 0 0 0 0 0 0 0 0 
0 0 0 0 0 0 0 0 0 
0 0 0 0 0 0 0 0 0 
0 0 0 0 0 0 0 0 0 
0 0 0 0 0 0 0 0 0 
0 0 0 0 0 0 0 0 0 
0 0 0 0 0 0 0 0 0 
0 0 0 0 0 0 0 0 0 
0 0 0 0 0 0 0 0 0 
0 0 0 0 0 0 0 0 0 
0 0 0 0 0 0 0 0 0 
0 0 0 0 0 0 0 0 0 
0 0 0 0 0 0 0 0 0 
0 0 0 0 0 0 0 0 0 
0 0 0 0 0 0 0 0 0 
0 0 0 0 0 0 0 0 0 
0 0 0 0 0 0 0 0 0 
0 0 0 0 0 0 0 0 0 
0 0 0 0 0 0 0 0 0 
0 0 0 0 0 0 0 0 0 
0 0 0 0 0 0 0 0 0 
0 0 0 0 0 0 0 0 0 
0 0 0 0 0 0 0 0 0 
0 0 0 0 0 0 0 0 0 
0 0 0 0 0 0 0 0 0 
0 0 0 0 0 0 0 0 0 
0 0 0 0 0 0 0 0 0 
0 0 0 0 0 0 0 0 0 
0 0 0 0 0 0 0 0 0 
0 0 0 0 0 0 0 0 0 
0 0 0 0 0 0 0 0 0 
0 0 0 0 0 0 0 0 0 
0 0 0 0 0 0 0 0 0 
0 0 0 0 0 0 0 0 0 
0 0 0 0 0 0 0 0 0 
0 0 0 0 0 0 0 0 0 
0 0 0 0 0 0 0 0 0 
0 0 0 0 0 0 0 0 0 
0 0 0 0 0 0 0 0 0 
0 0 0 0 0 0 0 0 0 
0 0 0 0 0 0 0 0 0 
0 0 0 0 0 0 0 0 0 
0 0 0 0 0 0 0 0 0 
0 0 0 0 0 0 0 0 0 
0 0 0 0 0 0 0 0 0 
0 0 0 0 0 0 0 0 0 
0 0 0 0 0 0 0 0 0 
0 0 0 0 0 0 0 0 0 
0 0 0 0 0 0 0 0 0 
0 0 0 0 0 0 0 0 0 
0 0 0 0 0 0 0 0 0 
0 0 0 0 0 0 0 0 0 
0 0 0 0 0 0 0 0 0 
0 0 0 0 0 0 0 0 0 
0 0 0 0 0 0 0 0 0 
0 0 0 0 0 0 0 0 0 
0 0 0 0 0 0 0 0 0 
0 0 0 0 0 0 0 0 0 
0 0 0 0 0 0 0 0 0 
0 0 0 0 0 0 0 0 0 
0 0 0 0 0 0 0 0 0 
0 0 0 0 0 0 0 0 0 
0 0 0 0 0 0 0 0 0 
0 0 0 0 0 0 0 0 0 
0 0 0 0 0 0 0 0 0 
0 0 0 0 0 0 0 0 0 
0 0 0 0 0 0 0 0 0 
0 0 0 0 0 0 0 0 0 
0 0 0 0 0 0 0 0 0 
0 0 0 0 0 0 0 0 0 
0 0 0 0 0 0 0 0 0 
0 0 0 0 0 0 0 0 0 
0 0 0 0 0 0 0 0 0 
0 0 0 0 0 0 0 0 0 
0 0 0 0 0 0 0 0 0 
0 0 0 0 0 0 0 0 0 
0 0 0 0 0 0 0 0 0 
0 0 0 0 0 0 0 0 0 
0 0 0 0 0 0 0 0 0 
0 0 0 0 0 0 0 0 0 
0 0 0 0 0 0 0 0 0 
0 0 0 0 0 0 0 0 0 
0 0 0 0 0 0 0 0 0 
0 0 0 0 0 0 0 0 0 
0 0 0 0 0 0 0 0 0 
0 0 0 0 0 0 0 0 0 
0 0 0 0 0 0 0 0 0 
0 0 0 0 0 0 0 0 0 
0 0 0 0 0 0 0 0 0 
0 0 0 0 0 0 0 0 0 
0 0 0 0 0 0 0 0 0 
0 0 0 0 0 0 0 0 0 
0 0 0 0 0 0 0 0 0 
0 0 0 0 0 0 0 0 0 
0 0 0 0 0 0 0 0 0 
0 0 0 0 0 0 0 0 0 
0 0 0 0 0 0 0 0 0 
0 0 0 0 0 0 0 0 0 
0 0 0 0 0 0 0 0 0 
0 0 0 0 0 0 0 0 0 
0 0 0 0 0 0 0 0 0 
0 0 0 0 0 0 0 0 0 
0 0 0 0 0 0 0 0 0 
0 0 0 0 0 0 0 0 0 
0 0 0 0 0 0 0 0 0 
0 0 0 0 0 0 0 0 0 
0 0 0 0 0 0 0 0 0 
0 0 0 0 0 0 0 0 0 
0 0 0 0 0 0 0 0 0 
0 0 0 0 0 0 0 0 0 
0 0 0 0 0 0 0 0 0 
0 0 0 0 0 0 0 0 0 
0 0 0 0 0 0 0 0 0 
0 0 0 0 0 0 0 0 0 
0 0 0 0 0 0 0 0 0 
0 0 0 0 0 0 0 0 0 
0 0 0 0 0 0 0 0 0 
0 0 0 0 0 0 0 0 0 
0 0 0 0 0 0 0 0 0 
0 0 0 0 0 0 0 0 0 
0 0 0 0 0 0 0 0 0 
0 0 0 0 0 0 0 0 0 
0 0 0 0 0 0 0 0 0 
0 0 0 0 0 0 0 0 0 
0 0 0 0 0 0 0 0 0 
0 0 0 0 0 0 0 0 0 
0 0 0 0 0 0 0 0 0 
0 0 0 0 0 0 0 0 0 
0 0 0 0 0 0 0 0 0 
0 0 0 0 0 0 0 0 0 
0 0 0 0 0 0 0 0 0 
0 0 0 0 0 0 0 0 0 
0 0 0 0 0 0 0 0 0 
0 0 0 0 0 0 0 0 0 
0 0 0 0 0 0 0 0 0 
0 0 0 0 0 0 0 0 0 
0 0 0 0 0 0 0 0 0 
0 0 0 0 0 0 0 0 0 
0 0 0 0 0 0 0 0 0 
0 0 0 0 0 0 0 0 0 
0 0 0 0 0 0 0 0 0 
0 0 0 0 0 0 0 0 0 
0 0 0 0 0 0 0 0 0 
0 0 0 0 0 0 0 0 0 
0 0 0 0 0 0 0 0 0 
0 0 0 0 0 0 0 0 0 
0 0 0 0 0 0 0 0 0 
0 0 0 0 0 0 0 0 0 
0 0 0 0 0 0 0 0 0 
0 0 0 0 0 0 0 0 0 
0 0 0 0 0 0 0 0 0 
0 0 0 0 0 0 0 0 0 
0 0 0 0 0 0 0 0 0 
0 0 0 0 0 0 0 0 0 
0 0 0 0 0 0 0 0 0 
0 0 0 0 0 0 0 0 0 
0 0 0 0 0 0 0 0 0 
0 0 0 0 0 0 0 0 0 
0 0 0 0 0 0 0 0 0 
0 0 0 0 0 0 0 0 0 
0 0 0 0 0 0 0 0 0 
0 0 0 0 0 0 0 0 0 
0 0 0 0 0 0 0 0 0 
0 0 0 0 0 0 0 0 0 
0 0 0 0 0 0 0 0 0 
0 0 0 0 0 0 0 0 0 
0 0 0 0 0 0 0 0 0 
0 0 0 0 0 0 0 0 0 
0 0 0 0 0 0 0 0 0 
0 0 0 0 0 0 0 0 0 
0 0 0 0 0 0 0 0 0 
0 0 0 0 0 0 0 0 0 
0 0 0 0 0 0 0 0 0 
0 0 0 0 0 0 0 0 0 
0 0 0 0 0 0 0 0 0 
0 0 0 0 0 0 0 0 0 
0 0 0 0 0 0 0 0 0 
0 0 0 0 0 0 0 0 0 
0 0 0 0 0 0 0 0 0 
0 0 0 0 0 0 0 0 0 
0 0 0 0 0 0 0 0 0 
0 0 0 0 0 0 0 0 0 
0 0 0 0 0 0 0 0 0 
0 0 0 0 0 0 0 0 0 
0 0 0 0 0 0 0 0 0 
0 0 0 0 0 0 0 0 0 
0 0 0 0 0 0 0 0 0 
0 0 0 0 0 0 0 0 0 
0 0 0 0 0 0 0 0 0 
0 0 0 0 0 0 0 0 0 
0 0 0 0 0 0 0 0 0 
0 0 0 0 0 0 0 0 0 
0 0 0 0 0 0 0 0 0 
0 0 0 0 0 0 0 0 0 
0 0 0 0 0 0 0 0 0 
0 0 0 0 0 0 0 0 0 
0 0 0 0 0 0 0 0 0 
0 0 0 0 0 0 0 0 0 
0 0 0 0 0 0 0 0 0 
0 0 0 0 0 0 0 0 0 
0 0 0 0 0 0 0 0 0 
0 0 0 0 0 0 0 0 0 
0 0 0 0 0 0 0 0 0 
0 0 0 0 0 0 0 0 0 
0 0 0 0 0 0 0 0 0 
0 0 0 0 0 0 0 0 0 
0 0 0 0 0 0 0 0 0 
0 0 0 0 0 0 0 0 0 
0 0 0 0 0 0 0 0 0 
0 0 0 0 0 0 0 0 0 
0 0 0 0 0 0 0 0 0 
0 0 0 0 0 0 0 0 0 
0 0 0 0 0 0 0 0 0 
0 0 0 0 0 0 0 0 0 
0 0 0 0 0 0 0 0 0 
0 0 0 0 0 0 0 0 0 
0 0 0 0 0 0 0 0 0 
0 0 0 0 0 0 0 0 0 
0 0 0 0 0 0 0 0 0 
0 0 0 0 0 0 0 0 0 
0 0 0 0 0 0 0 0 0 
0 0 0 0 0 0 0 0 0 
0 0 0 0 0 0 0 0 0 
0 0 0 0 0 0 0 0 0 
0 0 0 0 0 0 0 0 0 
0 0 0 0 0 0 0 0 0 
0 0 0 0 0 0 0 0 0 
0 0 0 0 0 0 0 0 0 
0 0 0 0 0 0 0 0 0 
0 0 0 0 0 0 0 0 0 
0 0 0 0 0 0 0 0 0 
0 0 0 0 0 0 0 0 0 
0 0 0 0 0 0 0 0 0 
0 0 0 0 0 0 0 0 0 
0 0 0 0 0 0 0 0 0 
0 0 0 0 0 0 0 0 0 
0 0 0 0 0 0 0 0 0 
0 0 0 0 0 0 0 0 0 
0 0 0 0 0 0 0 0 0 
0 0 0 0 0 0 0 0 0 
0 0 0 0 0 0 0 0 0 
0 0 0 0 0 0 0 0 0 
0 0 0 0 0 0 0 0 0 
0 0 0 0 0 0 0 0 0 
0 0 0 0 0 0 0 0 0 
0 0 0 0 0 0 0 0 0 
0 0 0 0 0 0 0 0 0 
0 0 0 0 0 0 0 0 0 
0 0 0 0 0 0 0 0 0 
0 0 0 0 0 0 0 0 0 
0 0 0 0 0 0 0 0 0 
0 0 0 0 0 0 0 0 0 
0 0 0 0 0 0 0 0 0 
0 0 0 0 0 0 0 0 0 
0 0 0 0 0 0 0 0 0 
0 0 0 0 0 0 0 0 0 
0 0 0 0 0 0 0 0 0 
0 0 0 0 0 0 0 0 0 
0 0 0 0 0 0 0 0 0 
0 0 0 0 0 0 0 0 0 
0 0 0 0 0 0 0 0 0 
0 0 0 0 0 0 0 0 0 
0 0 0 0 0 0 0 0 0 
0 0 0 0 0 0 0 0 0 
0 0 0 0 0 0 0 0 0 
0 0 0 0 0 0 0 0 0 
0 0 0 0 0 0 0 0 0 
0 0 0 0 0 0 0 0 0 
0 0 0 0 0 0 0 0 0 
0 0 0 0 0 0 0 0 0 
0 0 0 0 0 0 0 0 0 
0 0 0 0 0 0 0 0 0 
0 0 0 0 0 0 0 0 0 
0 0 0 0 0 0 0 0 0 
0 0 0 0 0 0 0 0 0 
0 0 0 0 0 0 0 0 0 
0 0 0 0 0 0 0 0 0 
0 0 0 0 0 0 0 0 0 
0 0 0 0 0 0 0 0 0 
0 0 0 0 0 0 0 0 0 
0 0 0 0 0 0 0 0 0 
0 0 0 0 0 0 0 0 0 
0 0 0 0 0 0 0 0 0 
0 0 0 0 0 0 0 0 0 
0 0 0 0 0 0 0 0 0 
0 0 0 0 0 0 0 0 0 
0 0 0 0 0 0 0 0 0 
0 0 0 0 0 0 0 0 0 
0 0 0 0 0 0 0 0 0 
0 0 0 0 0 0 0 0 0 
0 0 0 0 0 0 0 0 0 
0 0 0 0 0 0 0 0 0 
0 0 0 0 0 0 0 0 0 
0 0 0 0 0 0 0 0 0 
0 0 0 0 0 0 0 0 0 
0 0 0 0 0 0 0 0 0 
0 0 0 0 0 0 0 0 0 
0 0 0 0 0 0 0 0 0 
0 0 0 0 0 0 0 0 0 
0 0 0 0 0 0 0 0 0 
0 0 0 0 0 0 0 0 0 
0 0 0 0 0 0 0 0 0 
0 0 0 0 0 0 0 0 0 
0 0 0 0 0 0 0 0 0 
0 0 0 0 0 0 0 0 0 
0 0 0 0 0 0 0 0 0 
0 0 0 0 0 0 0 0 0 
0 0 0 0 0 0 0 0 0 
0 0 0 0 0 0 0 0 0 
0 0 0 0 0 0 0 0 0 
0 0 0 0 0 0 0 0 0 
0 0 0 0 0 0 0 0 0 
0 0 0 0 0 0 0 0 0 
0 0 0 0 0 0 0 0 0 
0 0 0 0 0 0 0 0 0 
0 0 0 0 0 0 0 0 0 
0 0 0 0 0 0 0 0 0 
0 0 0 0 0 0 0 0 0 
0 0 0 0 0 0 0 0 0 
0 0 0 0 0 0 0 0 0 
0 0 0 0 0 0 0 0 0 
0 0 0 0 0 0 0 0 0 
0 0 0 0 0 0 0 0 0 

v 3 1488 double
-0.00631138 0.00266124 9.75156e-14 -0.0190707 -0.0089037 -8.40112e-08 -0.00951022 -0.000515677 -1.41263e-07 
0.0348066 -0.008354 -4.88949e-08 -0.0106369 0.0166036 -3.40875e-13 -0.00107735 -0.00205604 -2.65605e-07 
-0.0210744 0.00431873 5.90632e-06 -0.00106247 0.00676898 0.00442456 -0.000348795 -0.000184972 0.000334026 
0.00226795 -0.00668776 0.000307389 0.00323802 -0.00384751 0.00020563 -0.00272186 -0.0104311 3.89111e-05 
-0.00303755 0.00618514 0.00437329 0.00258065 -0.000359907 0.000167092 0.0112225 0.00482591 1.43738e-05 
0.00458611 -0.0127058 3.72145e-08 0.0057054 -0.00103306 -0.0015438 -0.00387483 0.00214144 0.000483053 
0.00986566 -0.0171749 4.00675e-05 0.0251406 0.0129519 0.00477465 -0.00651394 -0.00177644 -0.00361421 