# vtk DataFile Version 4.0
Generated by LIGGGHTS
ASCII
DATASET POLYDATA
POINTS 20423 float
-0.137089 -0.26129 -0.995081 -0.157494 -0.245117 -0.995048 -0.130086 -0.253009 -0.995044 
-0.125497 -0.26221 -0.99501 -0.140863 -0.252 -0.995044 -0.167089 -0.242416 -0.995039 
-0.147594 -0.243891 -0.995075 -0.155851 -0.250509 -0.986844 -0.143324 -0.247114 -0.986737 
-0.15023 -0.246629 -0.979619 -0.150861 -0.253417 -0.995005 -0.133183 -0.257698 -0.981183 
-0.158741 -0.248688 -0.974849 -0.163625 -0.245553 -0.982927 -0.147765 -0.255422 -0.983621 
-0.165716 -0.244063 -0.969321 -0.123692 -0.246846 -0.977255 -0.12369 -0.267846 -0.986754 
-0.13991 -0.244718 -0.977727 -0.120369 -0.256248 -0.965969 -0.131561 -0.247237 -0.970678 
-0.139858 -0.252474 -0.968851 -0.148874 -0.254686 -0.97372 -0.170635 -0.240615 -0.97727 
-0.14672 -0.245436 -0.970421 -0.138737 -0.243364 -0.964853 -0.155719 -0.241608 -0.968543 
-0.146835 -0.2559 -0.962618 -0.154865 -0.25115 -0.966003 -0.161783 -0.246538 -0.960491 
-0.135567 -0.26207 -0.967092 -0.142268 -0.24915 -0.956903 -0.153697 -0.251745 -0.956127 
-0.133478 -0.25099 -0.961149 -0.127669 -0.241153 -0.963887 -0.149579 -0.243767 -0.961014 
-0.139076 -0.260079 -0.95802 -0.164847 -0.244582 -0.951194 -0.156465 -0.240395 -0.954673 
-0.134678 -0.242667 -0.95573 -0.13169 -0.258111 -0.945188 -0.130315 -0.264732 -0.958814 
-0.125905 -0.246427 -0.952523 -0.121243 -0.269 -0.958133 -0.147165 -0.24241 -0.951439 
-0.1457 -0.256532 -0.951141 -0.134009 -0.242327 -0.945774 -0.121667 -0.268757 -0.948126 
-0.154144 -0.240433 -0.944629 -0.16161 -0.246842 -0.941791 -0.142363 -0.247688 -0.944532 
-0.153984 -0.251566 -0.94616 -0.169795 -0.241252 -0.942809 -0.124491 -0.240415 -0.943555 
-0.122398 -0.267688 -0.93827 -0.146186 -0.256247 -0.940987 -0.11919 -0.243009 -0.959041 
-0.116824 -0.249998 -0.942076 -0.119722 -0.266697 -0.977669 -0.119371 -0.241878 -0.969787 
-0.118811 -0.245202 -0.995069 -0.11157 -0.272431 -0.976668 -0.108988 -0.247412 -0.973017 
-0.118628 -0.270047 -0.995049 -0.0940538 -0.271105 -0.978914 -0.0880734 -0.281579 -0.986044 
-0.0815741 -0.262559 -0.995081 -0.0722006 -0.250029 -0.995016 -0.0949383 -0.260075 -0.988938 
-0.0710598 -0.286349 -0.995042 -0.107887 -0.264211 -0.995095 -0.0795141 -0.243223 -0.995024 
-0.0824407 -0.282159 -0.995045 -0.0808748 -0.275052 -0.988247 -0.104552 -0.271321 -0.986678 
-0.0922311 -0.280222 -0.995024 -0.0769557 -0.284797 -0.987139 -0.0993033 -0.273042 -0.995027 
-0.1093 -0.274046 -0.995039 -0.0631465 -0.278713 -0.995046 -0.0975106 -0.278392 -0.986761 
-0.09825 -0.244752 -0.987633 -0.0733606 -0.276665 -0.995034 -0.0652141 -0.268252 -0.995022 
-0.103768 -0.249735 -0.995053 -0.0920029 -0.24679 -0.995089 -0.0837061 -0.252288 -0.995069 
-0.0603375 -0.288747 -0.99501 -0.0675275 -0.27422 -0.987324 -0.0872574 -0.271342 -0.995052 
-0.113823 -0.25501 -0.984989 -0.0657018 -0.283999 -0.986977 -0.0826698 -0.248439 -0.985909 
-0.0744002 -0.267825 -0.99057 -0.0909412 -0.24415 -0.980776 -0.0772444 -0.2563 -0.988715 
-0.0705837 -0.259884 -0.995118 -0.0671151 -0.278868 -0.973837 -0.073797 -0.243976 -0.986789 
-0.101674 -0.261572 -0.970259 -0.114488 -0.271899 -0.986185 -0.0675261 -0.255358 -0.986848 
-0.0819709 -0.265905 -0.984453 -0.0844663 -0.273893 -0.979008 -0.102654 -0.276568 -0.978391 
-0.0677735 -0.269991 -0.978309 -0.0626285 -0.247085 -0.995077 -0.0619004 -0.288502 -0.978976 
-0.10894 -0.241269 -0.995074 -0.0910246 -0.25304 -0.976308 -0.0707399 -0.268323 -0.96891 
-0.0745373 -0.276908 -0.98078 -0.0916232 -0.280476 -0.97677 -0.0742817 -0.251657 -0.980464 
-0.073866 -0.25835 -0.973084 -0.0817048 -0.283471 -0.978455 -0.0650019 -0.258391 -0.977688 
-0.0715858 -0.286229 -0.978859 -0.0728505 -0.262443 -0.982284 -0.0782684 -0.26699 -0.975304 
-0.0895851 -0.27314 -0.970217 -0.0854372 -0.282398 -0.969227 -0.0780689 -0.276126 -0.971497 
-0.0877834 -0.264032 -0.97572 -0.0828447 -0.256813 -0.98052 -0.100875 -0.249947 -0.979605 
-0.0617385 -0.247592 -0.966766 -0.0831065 -0.255397 -0.970685 -0.0949541 -0.250616 -0.962536 
-0.0882177 -0.24702 -0.968928 -0.103467 -0.265685 -0.956019 -0.0652983 -0.28772 -0.969644 
-0.107964 -0.274631 -0.966764 -0.0806366 -0.264319 -0.966006 -0.0768261 -0.255601 -0.962942 
-0.0978818 -0.246176 -0.970957 -0.0815052 -0.246222 -0.976259 -0.0827006 -0.273745 -0.962989 
-0.104727 -0.248327 -0.964041 -0.0867453 -0.256153 -0.961436 -0.0959262 -0.27245 -0.96174 
-0.0801506 -0.283875 -0.960976 -0.0981954 -0.278179 -0.969598 -0.0709249 -0.277571 -0.964709 
-0.0749662 -0.285356 -0.969499 -0.0701869 -0.249187 -0.971772 -0.0615002 -0.26572 -0.971866 
-0.0697698 -0.24012 -0.995034 -0.0873441 -0.240316 -0.989209 -0.104691 -0.275773 -0.957359 
-0.117402 -0.270655 -0.968772 -0.0785517 -0.246458 -0.966686 -0.073095 -0.247506 -0.958427 
-0.0885525 -0.265924 -0.96027 -0.108024 -0.256864 -0.957516 -0.111861 -0.267499 -0.96103 
-0.0753545 -0.285227 -0.95238 -0.0628631 -0.271762 -0.963636 -0.0906064 -0.280786 -0.960851 
-0.0671804 -0.256567 -0.965839 -0.0849967 -0.282485 -0.952255 -0.0798278 -0.262359 -0.956199 
-0.0748092 -0.272433 -0.957039 -0.0698077 -0.286671 -0.960865 -0.0706053 -0.263853 -0.959944 
-0.101187 -0.250064 -0.954791 -0.0609144 -0.256887 -0.995032 -0.107347 -0.24153 -0.985153 
-0.0650992 -0.241524 -0.959584 -0.0855497 -0.245377 -0.959487 -0.0911814 -0.250844 -0.953308 
-0.110619 -0.247107 -0.956057 -0.0833212 -0.240963 -0.950813 -0.0961136 -0.278646 -0.952769 
-0.0807898 -0.252481 -0.954333 -0.115541 -0.262457 -0.953208 -0.0953353 -0.259176 -0.956915 
-0.10212 -0.240675 -0.958201 -0.112989 -0.272534 -0.952497 -0.0944914 -0.268409 -0.952873 
-0.0854192 -0.272552 -0.953437 -0.0815002 -0.266507 -0.946508 -0.0723422 -0.265581 -0.950177 
-0.074889 -0.247212 -0.948229 -0.0715744 -0.256193 -0.953585 -0.114152 -0.272092 -0.942565 
-0.0932504 -0.240928 -0.953334 -0.0772658 -0.276228 -0.94816 -0.101674 -0.258375 -0.949263 
-0.108239 -0.250888 -0.947122 -0.117762 -0.252844 -0.951612 -0.0779817 -0.257145 -0.945968 
-0.0639109 -0.251305 -0.957772 -0.0629868 -0.264669 -0.953449 -0.104436 -0.27488 -0.947408 
-0.084683 -0.249671 -0.945496 -0.0876758 -0.25978 -0.950546 -0.0664451 -0.242962 -0.944988 
-0.0725395 -0.28599 -0.94283 -0.115428 -0.25984 -0.943366 -0.0647914 -0.266456 -0.943698 
-0.082587 -0.282987 -0.942483 -0.0949149 -0.264633 -0.943892 -0.116841 -0.243161 -0.949332 
-0.0742946 -0.26423 -0.939992 -0.108208 -0.265588 -0.947185 -0.102761 -0.259527 -0.939227 
-0.0981656 -0.24572 -0.946126 -0.0897227 -0.276632 -0.945387 -0.0938239 -0.254566 -0.944429 
-0.0616466 -0.279346 -0.950735 -0.0935452 -0.240752 -0.963296 -0.0986076 -0.27808 -0.939951 
-0.0712191 -0.273691 -0.940635 -0.0860533 -0.259606 -0.940577 -0.0628107 -0.288204 -0.93859 
-0.0871645 -0.269478 -0.938997 -0.105202 -0.269764 -0.93868 -0.0597301 -0.262307 -0.96258 
-0.058693 -0.280573 -0.967245 -0.0590399 -0.240015 -0.951781 -0.0583562 -0.256362 -0.970503 
-0.0546396 -0.25241 -0.961695 -0.0539469 -0.268108 -0.956908 -0.0593745 -0.263915 -0.988153 
-0.0576894 -0.245779 -0.981068 -0.0389081 -0.247453 -0.966509 -0.0556645 -0.289705 -0.97128 
-0.055492 -0.261037 -0.979088 -0.0270907 -0.285647 -0.987434 -0.042624 -0.281011 -0.995052 
-0.0535434 -0.281403 -0.995018 -0.0401524 -0.292243 -0.995018 -0.0273648 -0.293728 -0.995062 
-0.0159401 -0.294629 -0.995012 -0.00723579 -0.262469 -0.995096 -0.0300886 -0.260934 -0.995048 
-0.0396037 -0.263811 -0.995077 -0.0459582 -0.271628 -0.99505 -0.0347528 -0.266949 -0.986935 
-0.0352331 -0.272792 -0.995028 -0.000940979 -0.279063 -0.99502 -0.018057 -0.255054 -0.99504 
-0.00717734 -0.287382 -0.995035 -0.0333369 -0.284611 -0.995065 -0.0558901 -0.271686 -0.995031 
-0.0500175 -0.290737 -0.99501 -0.0140272 -0.285453 -0.987816 -0.0163245 -0.266895 -0.995037 
-0.0208353 -0.286008 -0.995085 -0.04694 -0.253881 -0.99505 -0.0218666 -0.294193 -0.986798 
-0.0448476 -0.266006 -0.986952 -0.0517887 -0.26259 -0.995018 -0.030699 -0.276021 -0.986094 
-0.0273188 -0.251331 -0.995038 -0.037285 -0.251086 -0.99498 -0.0209187 -0.277957 -0.986279 
-0.0395539 -0.257357 -0.987557 -0.00494619 -0.248625 -0.990119 -0.054209 -0.275853 -0.980767 
-0.0456267 -0.286285 -0.987185 -0.00831128 -0.294911 -0.988611 -0.0263084 -0.277517 -0.995019 
-0.0163401 -0.277148 -0.99506 -0.0267202 -0.288788 -0.972893 -0.0337104 -0.293095 -0.987438 
-0.0252269 -0.268527 -0.990825 -0.0408333 -0.292157 -0.980551 -0.0177961 -0.244202 -0.983927 
-0.0263916 -0.243535 -0.988894 -0.0079174 -0.272206 -0.993213 -0.0405952 -0.275045 -0.986929 
-0.0363804 -0.284026 -0.984293 -0.00889824 -0.277429 -0.984668 -0.0148837 -0.253561 -0.971548 
-0.018622 -0.244918 -0.995014 -0.0137635 -0.260473 -0.98788 -0.00465264 -0.286533 -0.984549 
-0.00793123 -0.267529 -0.984014 -0.0356138 -0.245578 -0.985681 -0.0262252 -0.256198 -0.980932 
-0.0493395 -0.257175 -0.985898 -0.0360599 -0.272264 -0.978467 -0.00911907 -0.246732 -0.975922 
-0.000604142 -0.29493 -0.99501 -0.00984585 -0.258802 -0.978864 -0.0449848 -0.246331 -0.988907 
-0.0094683 -0.294772 -0.961359 -0.0466923 -0.26557 -0.972882 -0.0141672 -0.294658 -0.980533 
-0.0253215 -0.274538 -0.977805 -0.0355406 -0.24551 -0.975705 -0.0272435 -0.267354 -0.971085 
-0.0395281 -0.262814 -0.979199 -0.0178079 -0.268774 -0.984179 -0.0426783 -0.274601 -0.971258 
-0.0432466 -0.251392 -0.980483 -0.0458919 -0.291476 -0.972007 -0.0513637 -0.290538 -0.980282 
-0.0420657 -0.28325 -0.976175 -0.0130906 -0.294698 -0.970635 -0.0371141 -0.266402 -0.970201 
-0.0127717 -0.271053 -0.970314 -0.0231025 -0.242552 -0.975667 -0.0394978 -0.259505 -0.963375 
-0.0488557 -0.255843 -0.973554 -0.000780139 -0.263561 -0.975687 -0.00515248 -0.292762 -0.976781 
-0.0389318 -0.282696 -0.966754 -0.0487334 -0.246752 -0.969094 -0.0388531 -0.255471 -0.972508 
-0.0155397 -0.28433 -0.963931 -0.0590512 -0.289012 -0.961906 -0.0389362 -0.292462 -0.96488 
-0.00166912 -0.295006 -0.967745 -0.0121349 -0.284713 -0.978043 -0.0194356 -0.294291 -0.961028 
-0.0326934 -0.275489 -0.969529 -0.0487296 -0.282591 -0.968585 -0.0223282 -0.248301 -0.967346 
[...]
POINT_DATA 20423
FIELD FieldData 7
id 1 20423 int
196 202 880 4791 6203 1778 5015 3769 2447 
6131 2528 5080 1428 2889 5461 6657 4417 3132 
3980 9008 7063 8492 8311 4673 9106 8591 7425 
3992 7158 10721 6761 8298 7456 10673 8553 7446 
8357 7189 11395 10744 13518 13974 8826 13541 13574 
10361 10215 15257 12059 12665 11740 14493 12722 13956 
8889 13768 12138 11323 1832 10892 818 4263 5272 
572 265 294 536 1777 1514 2027 3106 454 
528 1858 773 740 1027 3730 1086 3321 4708 
4790 115 3142 1022 3453 1981 2250 4598 1452 
585 3933 2434 1491 1234 6332 6336 4071 4645 
4508 4806 3812 3637 3766 5115 7900 322 5045 
3352 6219 7586 2815 5330 7879 3918 7726 4287 
4290 4313 4164 5476 7019 5788 9064 9231 9268 
7565 6691 7545 6782 5792 4457 5852 5869 8247 
6839 5763 8253 6714 4361 4082 8314 10708 10771 
10912 10979 8428 1853 1202 5975 7400 7180 9421 
2839 8303 10885 9292 10981 8461 5977 9656 8350 
11107 7213 8594 12313 3422 5398 6640 9158 8621 
7100 5847 5604 11521 8850 13612 8443 10407 9702 
12035 7238 12840 13562 8255 11039 14019 10443 12853 
15050 15097 15316 11292 8714 13011 12988 12835 11609 
12830 12914 12664 15148 13929 10435 15087 11799 15337 
7367 12781 15932 10512 5686 13707 12896 15065 14327 
15744 17467 10878 8143 12799 5147 8223 11124 1555 
4513 7245 5301 1333 3279 429 1550 562 395 
1828 122 1654 1790 3277 190 948 1044 331 
3134 1553 1100 3120 3276 930 2312 3082 4684 
4729 4941 2010 350 155 688 4939 3029 2090 
3364 2259 900 3698 1145 4697 4837 2195 2350 
2700 2784 6224 2060 4959 4891 4862 2203 2474 
2134 5271 2639 6415 4452 7912 946 5441 925 
5059 6548 6507 4419 6445 2669 7762 4262 6690 
4236 4238 4370 5711 4180 6790 4140 8176 4160 
9422 3357 4559 5477 5539 8291 5542 4279 6622 
9109 6804 8325 9400 5710 7431 7387 10894 6701 
6833 4349 10601 9435 5982 7145 5834 7255 9287 
10958 7319 7466 8188 8336 9808 8423 12394 12487 
851 3332 12158 7323 8912 7283 9665 10080 12083 
5764 11608 12024 11576 12019 9876 12248 8878 11867 
13675 2244 7356 6733 13813 8182 12127 10322 11152 
13852 10466 9858 11430 13853 11376 15095 15543 4248 
13503 13050 13515 12164 14029 15389 14185 11977 11504 
15213 11694 13244 10235 12847 15172 12692 16042 14255 
14546 15373 14532 17953 10335 14292 15059 15530 17828 
17469 9476 12424 364 5379 6639 4581 5927 2220 
1113 669 6403 6536 3411 2429 1641 35 17 
131 328 1717 1599 1890 1788 608 2189 3230 
3408 477 3403 759 3069 1903 3203 3419 2465 
1128 3285 1082 2460 911 2264 683 4860 5060 
37 172 706 1571 1577 1595 2021 797 4677 
4006 2255 4571 4968 1187 3365 4562 1215 2187 
4879 2548 2199 3952 3738 5341 2300 2578 4847 
1365 6126 6358 6517 3735 4127 101 212 2848 
2597 4032 1702 2299 4767 5530 2873 6466 3782 
5091 5404 7507 3726 5237 2899 5263 4305 7748 
7922 2758 6847 5173 5994 5472 5747 5666 5821 
9394 9468 5355 3846 9538 2849 2901 8006 6743 
4378 9103 9457 9773 4249 6023 9429 10929 11034 
5698 8212 6617 5777 8579 7164 10550 10579 8634 
12112 12208 9657 12333 7453 12236 12483 10699 10837 
11150 12087 8938 11331 8125 11418 10210 10411 9813 
13666 13687 13890 14039 12292 8410 11202 8911 11227 
11619 11206 12339 10479 10386 15210 3982 10082 13639 
10222 11187 11607 11265 13957 13540 13566 13726 12963 
12922 15173 15056 14256 13366 9077 11231 14530 11479 
13122 13037 11983 14367 11811 14116 11270 15306 15702 
7133 11764 11862 13963 14929 10231 2748 10320 9848 
5367 5078 8012 5227 3000 2913 1997 4631 3916 
3547 1585 263 1668 127 3041 678 2594 34 
1506 3413 1081 588 1020 2461 4793 25 2041 
3224 2016 4748 1409 1244 2409 1498 3396 2611 
1489 2114 1374 4087 6068 6091 6132 6414 2552 
2979 4097 6124 4768 3953 4028 2674 5137 2786 
2463 2214 3775 3941 6071 3661 6377 4615 7855 
8063 4372 6545 7640 7985 7575 7954 7631 5499 
6854 9122 7574 5919 7656 6612 8293 9469 9501 
5640 9037 8256 8324 6681 10690 7308 11022 8010 
9384 10824 10911 10950 10625 10595 10004 9731 10507 
10130 8637 12215 12245 2168 5225 9638 8113 10902 
7212 12411 10697 8724 8896 8534 11461 8906 8844 
11303 13644 13645 12561 14060 12242 12681 12498 13723 
13523 11196 15452 15321 12625 15515 11414 14146 12022 
14243 9668 12719 11831 10310 10380 9475 9243 1886 
7913 6963 2676 230 1794 561 788 3275 3538 
4662 1518 551 867 4778 3384 1106 2267 1454 
1355 4619 532 1634 709 6516 6226 2260 4870 
7602 6482 7706 6778 8504 6852 5498 9066 10817 
10807 6721 8578 10127 8401 6491 5130 3564 10852 
12281 12300 9797 10220 11372 13864 13749 12132 9744 
11348 12092 15202 10312 15084 12921 14144 13067 16007 
11765 11794 486 2068 343 1910 929 3440 3566 
2050 790 1866 1730 1926 842 735 830 2202 
1173 3181 436 264 4946 2045 4646 2104 2239 
3832 1363 1271 2081 3632 3742 6143 6481 135 
2123 985 1467 1395 885 4627 2630 2918 3886 
1375 6194 1203 3759 3966 1342 6086 3820 7584 
7898 2613 3978 5416 5505 8071 3647 9192 9224 
8 3603 5250 7775 2725 7203 10554 10707 5719 
7997 1142 8464 10976 10575 10910 7153 10027 7484 
9739 8290 8927 12135 12155 12239 12416 8602 9636 
10129 13954 12470 11403 13914 14025 12096 12766 13094 
13130 15269 10038 10148 12871 10368 10311 10441 12933 
15489 1420 3935 12839 14521 12856 14342 13743 14439 
15853 14963 17567 17781 8469 1196 4404 4074 3009 
615 987 3325 1807 1530 3297 206 1814 108 
335 1672 1677 51 850 3036 781 325 666 
3014 1284 939 1870 956 2579 4650 4792 4869 
3409 912 855 1164 1437 4878 4953 725 2319 
1913 3488 2100 589 4951 2505 4120 1361 4693 
4118 4934 6392 6469 4706 2866 3450 4061 3694 
6097 6353 2719 3328 5455 2660 3875 2635 3959 
5145 2951 4434 3578 7974 8019 3884 2256 2520 
4566 7124 7661 4534 7625 7668 6768 6556 7093 
4376 5090 5660 9285 4426 1724 2978 5574 5310 
6140 9137 6772 4469 7837 6699 5981 8180 10646 
10827 10856 10943 11003 7563 1032 4088 5062 1722 
6550 6082 9079 6628 5725 7037 5695 10631 8375 
9574 8559 4409 9864 8566 4138 7262 7347 9671 
7167 7277 9639 10786 1379 606 12531 3712 1085 
4721 12279 7389 12318 11542 12195 11492 12071 13615 
10561 13981 13538 13520 14236 10295 12608 12825 11283 
13044 12642 13114 15155 9041 97 15247 10336 8745 
12715 14206 12845 12838 15369 11653 13027 12635 14015 
12623 12828 13177 11783 13936 13049 11232 15417 15332 
14461 11900 11666 13415 11708 10243 7749 12124 11384 
17020 12975 12341 6750 10922 7156 11529 672 10577 
837 2732 12289 12384 9509 4402 2769 6118 3680 
9486 7835 6905 4494 2064 3438 2721 2689 1699 
2537 2089 1700 3283 990 4835 1957 1925 721 
1524 3191 543 3534 4544 1533 3234 1939 3032 
4864 535 1623 72 1510 392 333 1016 2225 
3881 4921 3844 4783 4868 4546 4964 2885 6197 
6383 6449 832 4696 4839 3180 2419 4727 4642 
3908 6007 6282 5143 7505 7658 8059 5486 1298 
2589 7582 6547 3388 7947 6581 4390 5488 9239 
9342 9567 5503 9256 7501 5668 6930 8582 5760 
8610 5538 8296 10629 10863 10975 9460 906 1408 
5167 3781 2608 5616 9228 5180 7864 10613 10946 
9048 8629 10921 4265 4436 9646 10652 10681 10754 
8575 8208 10804 9047 10720 7444 7314 8500 8178 
8742 2468 8439 8453 8960 8733 8122 12302 10125 
8772 13109 5997 8616 9664 10010 9743 12878 13820 
11077 8710 13962 12172 13530 13804 13865 12607 9628 
12843 11095 13781 10167 10193 13968 11500 10446 9710 
6819 9760 13706 14006 12707 11287 11675 12955 7058 
12582 15397 14429 14355 14407 6928 12464 15021 15287 
15016 14699 9735 11458 12117 10717 4319 10630 5644 
5153 5673 5840 856 2665 6121 6459 6559 5348 
9370 164 2167 2764 5253 3570 4715 2596 2373 
287 1617 495 1693 646 1723 3456 2132 2522 
4541 2067 802 459 2432 2448 4851 685 1516 
2529 1753 4504 4505 5007 1253 2546 2508 1261 
1210 1021 2096 2283 2697 6253 6485 6502 2524 
4593 2485 1265 426 1588 2999 2347 2240 5464 
1328 5357 7893 7897 4611 1301 3670 4480 4523 
6419 5190 4756 2804 6247 4134 2502 4278 4051 
5334 5236 4143 4438 3826 9128 9291 5246 7509 
5422 6393 275 6561 2148 6063 4486 9369 7128 
5773 9385 8363 10647 10675 10834 10970 2715 6848 
8409 3131 6408 546 4243 9540 6796 8129 8251 
10593 10773 11020 9622 8184 9792 7417 8168 7364 
8429 8163 12102 12476 5224 4495 6725 8586 6989 
12393 7169 9849 11215 9946 11566 10389 10205 13718 
14033 14038 10117 11483 11192 7303 9921 10248 13021 
10161 13794 12814 11658 5658 12297 12994 13913 15411 
13719 13845 11205 15111 15415 15517 8837 11563 4829 
12831 12592 15461 12829 11914 11964 13197 15296 10230 
9279 13722 11873 15766 14579 15009 11797 15105 11519 
10263 3944 13736 8279 13979 11220 10969 13950 5696 
3997 455 7735 3066 3108 648 1272 4936 2753 
1916 26 78 962 1880 618 3065 1664 408 
991 786 858 622 873 577 1124 261 583 
2329 1732 1718 1876 4520 691 3378 4873 2457 
4621 4940 4983 4527 1214 3866 5419 1483 6271 
6454 128 1619 1118 1716 779 5565 6228 6077 
4077 3164 5294 7600 2934 5165 7980 5667 6937 
4194 9320 9528 9057 6201 7526 6978 6577 9445 
4346 5769 2906 6580 8114 6816 5884 10026 9790 
6971 10545 10638 10639 10711 10753 10823 4510 1075 
5520 9304 8310 6957 10745 5828 10964 11157 7339 
9655 8419 7139 7152 8455 12046 12263 9676 8349 
11170 5964 1446 9828 6938 8841 8861 5600 9804 
8331 12520 9601 11091 13881 8898 11625 10176 13665 
9771 13607 11546 11267 12648 13084 14198 15344 12565 
10700 11533 13088 12486 13647 12627 10388 15416 13859 
10402 14631 11885 14347 11427 11698 15469 12966 11741 
11654 13489 3068 11129 11762 15484 14240 14950 14994 
5767 9898 15300 10352 13953 13634 7827 9093 10747 
7276 4214 373 2162 6080 4448 3165 7125 942 
3498 3669 2859 2336 3835 1800 31 423 1660 
266 107 3079 512 3257 548 463 2403 3004 
644 886 4507 1780 2073 292 182 4815 1252 
4038 4794 2138 2268 1447 624 3882 4651 2541 
2622 2075 2806 3991 6029 3784 2386 6265 6484 
4004 3642 2824 1484 5563 2222 3714 2828 2771 
4035 6638 5378 6501 4339 7530 7583 7932 3060 
4045 4754 2818 6530 4344 5288 8029 7851 7962 
2927 4332 3162 1470 4272 628 4157 5555 9470 
8333 7101 6797 8390 5682 6013 8449 6630 6829 
1371 9767 9833 10547 10608 10937 10954 4369 1962 
10585 9276 8399 9387 6951 9728 9261 8244 7372 
5885 6856 10567 10106 8407 9913 7472 9803 7258 
9815 9740 7265 9761 10122 11126 12043 12226 12396 
6952 1990 5504 8328 12078 12564 12405 6641 7235 
11018 11023 12436 8265 8677 12511 12345 9901 10014 
12115 8647 11626 8855 13969 9865 13905 8667 12429 
11621 12347 12312 11203 12996 11472 12559 11473 10284 
11306 10275 11526 11685 11118 12732 11166 15067 12626 
8946 13975 13613 15170 15279 14261 15553 10484 15096 
14108 12792 11923 8883 12930 8828 15224 14273 10978 
14332 13285 13383 12767 14835 15032 14265 13465 13165 
14139 17460 11677 11599 809 5809 9503 3719 5535 
7591 7018 8546 7006 2772 4999 5281 1179 4710 
2475 5471 1061 538 1340 2802 1938 1527 861 
16 409 3342 1842 1976 1600 1983 329 1964 
3407 414 1905 1582 3296 1574 3542 1033 1186 
4880 926 5054 4587 3306 3483 3527 2593 3546 
2501 3393 4053 2535 1497 2456 4854 2087 4597 
1469 1246 865 2382 2406 2789 6017 2826 726 
1461 3754 4633 2835 6352 2855 2509 6193 6313 
6048 2857 3673 7637 7781 8005 575 6259 3368 
817 1200 7611 2994 5384 1273 6980 2200 4462 
1255 5493 2989 7059 5220 8427 2188 4153 2415 
7753 7568 5944 9413 6990 5545 5531 6668 9491 
7216 4487 6680 8081 8397 6965 6942 10980 4737 
5509 6979 5887 10831 10959 7304 9087 9244 9345 
10518 10866 8612 5734 11541 7168 5656 9631 8230 
10938 9939 7434 10783 10607 10872 8353 12484 12541 
8088 12241 12042 7175 8893 12252 11121 8846 10037 
11488 8858 12336 8881 13581 13650 5146 9663 10963 
12203 12244 11190 8705 12081 12287 11302 13725 13734 
13756 7322 13099 12322 11759 12504 13569 8135 2743 
8762 14063 11131 13837 11240 15052 15086 15424 11909 
12467 14482 8329 11493 11282 8726 15403 15091 13649 
14133 12866 12816 12282 6147 13402 10482 15445 12685 
11725 13360 11499 9912 8740 2843 4003 5485 9759 
6119 6892 3264 2043 194 566 3307 4556 462 
163 472 347 509 1698 1946 3298 3478 3427 
3921 2398 1955 3062 309 3008 636 605 898 
540 1299 3679 1366 3746 4915 2375 2624 2427 
6164 1846 3752 3976 3818 6055 2936 1324 1099 
6065 5591 4382 7097 7581 4226 6961 4897 2304 
1257 9177 6880 3667 5382 9257 9259 7704 7732 
6888 10953 10508 10925 11052 9031 1216 5951 9736 
5631 10916 10635 10124 12033 10682 8105 9943 8795 
12170 8969 9881 10088 6696 11536 7451 11498 10240 
8990 8925 10351 13911 10365 10183 5950 14068 8884 
12913 11558 10200 13765 13556 10337 12733 13221 4128 
14223 14587 16075 507 2052 508 3258 1826 80 
1929 1763 1018 888 453 3465 4944 4898 4753 
6006 159 1036 5370 2612 6034 2752 521 1610 
2761 123 6202 6535 9182 4427 9417 7677 2164 
9127 10564 6378 4188 5650 2963 5874 11212 6656 
4362 8731 12223 10939 8845 8979 10199 14008 13093 
12841 13633 12769 15485 7241 13582 15560 3090 11514 
15446 11368 11853 14499 15109 12782 4429 13815 9973 
13918 1453 5340 3217 4455 8888 6831 9322 7967 
4445 6145 3930 6207 7665 5063 339 2276 2966 
1177 2277 33 1909 441 1739 568 2062 515 
3337 3391 3140 338 1891 428 2040 3011 3418 
658 958 1131 949 2181 3073 952 2555 841 
1774 3683 170 375 3018 250 4866 3176 1694 
4699 701 4690 3064 3114 3202 3504 2358 3358 
4730 2782 2627 4910 2221 2353 989 2609 2346 
3715 6421 2883 1911 4529 3877 418 4930 6183 
6570 6155 2693 4113 3870 1353 1133 2973 1345 
4694 3932 3912 6391 7679 4779 6173 3842 5172 
4632 4000 6384 6225 9018 9307 5768 7813 3979 
3778 5287 5925 9531 5086 9451 8011 9310 4220 
9674 6412 224 3630 7836 416 3426 3970 4491 
9027 8483 7201 9750 5038 8240 10806 8323 7210 
12125 12160 12435 12462 9620 8295 11522 12636 10055 
10003 13851 14010 7497 12217 12326 12974 13861 11239 
5924 13552 13697 12985 10356 13058 13773 10290 10146 
11620 12729 15276 15304 15475 7257 13870 11201 15437 
14454 13524 11787 15275 12610 8196 11326 14563 14190 
11103 5589 11711 11554 14405 11696 13778 14186 8988 
14594 14289 14145 15223 15069 14574 16975 19208 238 
14465 708 1624 3867 5308 6624 10967 11511 8358 
4040 9610 10782 5400 9553 1134 9612 2098 8580 
4691 3261 3125 1543 402 2046 458 632 556 
1504 3555 3046 821 647 4667 389 4749 1804 
4931 1316 4850 67 3030 1269 2363 4678 2233 
1450 5073 2257 723 2543 5517 1462 6179 6190 
6401 1587 3035 1980 2510 2887 3692 2118 3942 
7515 1754 3958 5612 7857 3880 6105 7983 8057 
9186 9431 4015 2905 3505 4522 4389 9119 6032 
6774 5175 770 2462 7419 8592 6795 10589 10021 
11122 8678 10089 7494 2020 11191 13531 9920 12265 
12823 6496 11639 14312 9840 15203 12947 15270 15196 
11834 13436 14778 10045 13039 53 12261 10873 12308 
801 5049 6500 3510 2919 3957 3659 6134 3557 
5343 4970 2088 9334 2165 366 527 5431 5502 
6172 3840 5543 2411 293 3710 2361 5452 4209 
2306 4540 1360 3220 3563 355 3085 547 3284 
843 4937 306 3552 3151 2275 4092 352 4976 
3340 2511 2194 3972 1879 602 6003 2694 6252 
3588 3864 7973 3232 438 6541 6053 4024 5450 
77 4545 6054 4928 7847 4374 5033 5536 5089 
4471 6464 6931 1194 6636 7022 7829 8008 9151 
9396 7621 5126 9175 9489 6977 9080 4218 5338 
3926 9190 9349 5908 9493 9139 6953 6763 9049 
10654 9181 8462 9926 11255 9677 10814 9959 12277 
12534 8246 10553 5948 12552 9845 10084 12542 13878 
10582 8708 7293 12889 13695 14457 11151 11642 10227 
12982 15374 6707 8392 12137 7177 12365 12031 11312 
13580 11050 13873 15372 8673 11910 13327 10628 12979 
13045 11770 16091 13279 13841 11501 15884 13468 14817 
9600 13379 12890 11296 9948 7928 210 3290 7907 
4933 6229 8498 9506 9226 6793 9017 5637 9554 
5753 4251 4080 4351 9063 4811 518 484 810 
451 6527 1274 811 1114 4763 3252 522 695 
1869 4623 2610 4703 3457 3582 2569 5030 734 
3672 5354 4089 5157 6191 4111 3707 3100 1438 
6569 6146 3803 6015 4068 5277 7642 8025 2932 
3514 882 545 1760 6376 4800 5596 5583 4328 
1373 6204 4268 6351 5346 6470 7777 6127 4950 
6749 5432 6902 5495 5149 4472 4098 6682 9125 
9159 9219 9266 1218 4019 4481 4185 6882 9344 
9537 8389 4398 7508 4150 5814 7092 9165 6941 
8598 5726 7437 8121 10685 10736 10826 11001 4191 
9108 5968 8023 8430 6832 7326 8307 10870 9575 
8306 9953 10033 9852 8974 12357 5302 8712 5915 
9975 1478 12431 12412 8825 14057 11364 8690 8920 
13003 9812 13550 11475 11325 12539 13023 12578 9869 
12851 13742 9645 7121 12967 12343 12927 12920 15527 
15569 15378 10283 14393 11773 11704 11779 14590 11684 
14080 6594 15313 14428 12800 16026 15259 13313 16086 
13382 13464 14618 17705 17827 13739 15285 14408 11284 
14211 14153 17651 17838 10272 15656 12948 11401 8528 
11402 8448 8959 8080 11137 9363 4453 10622 5046 
1197 7746 4894 6257 277 3024 6734 5085 1711 
6008 3975 1670 4550 1885 6199 3550 3107 448 
792 2066 976 977 2577 6 2433 4554 4617 
634 4676 2421 4517 3810 1369 3580 6156 6554 
3 1151 2449 4988 6161 6116 6281 6348 5179 
4119 5533 2670 5474 3022 2033 4801 3888 2858 
4473 5201 4441 5576 8354 8300 7559 6896 5259 
9519 3621 8352 6587 8222 6715 8171 7048 7682 
9437 8201 8431 10877 10897 10948 11008 2055 9403 
2904 9412 8411 5368 10523 5671 11035 8209 8099 
9173 11442 7188 9742 10057 5647 7362 8313 12219 
12320 2335 2655 7572 10555 9659 7171 11014 12171 
12536 10111 8338 9722 9589 13702 3495 11194 3919 
9911 11367 10476 10387 13603 11825 7353 10237 12946 
10135 10209 13831 15088 15414 4312 8650 13995 10316 
13516 14317 14591 13828 12865 15174 14440 12602 9411 
14346 15821 13431 10285 11980 11970 15548 13263 14104 
12286 11718 13703 11638 15451 14621 13397 17943 6998 
9824 12802 4364 11362 13777 4276 6970 7788 4981 
3423 4871 5619 6724 2787 5728 6648 3802 2186 
4762 313 502 3095 1829 603 1590 141 401 
358 995 3449 256 476 2044 840 1849 3474 
655 3443 3204 864 2430 4543 3059 3055 4515 
1143 1341 2216 1256 4025 917 1277 812 2912 
1182 6298 6417 286 3774 4072 4774 2941 4830 
4659 2028 6038 4116 2952 2708 3678 4449 7532 
4722 5529 5526 1339 6844 3591 4044 4258 2766 
5516 6973 6966 9058 2832 1812 6168 2803 8037 
6924 9144 9550 2779 9112 9169 7755 8532 8260 
1319 5761 9142 8518 5754 6889 7086 10678 10985 
11006 4961 9487 4315 9462 6822 7222 7490 3737 
6618 7204 9789 8250 7321 9993 8312 9878 8197 
7143 7146 8747 12352 12459 10998 12250 12010 9100 
7461 9426 9724 7104 8765 9583 9699 10112 11136 
11279 8892 14036 12310 11319 7430 8341 11141 11594 
11462 14023 10169 7391 10350 13971 11104 12832 15240 
15532 8947 5136 9945 10265 8645 13825 13073 15136 
10192 13766 12224 10488 11577 13998 14485 13038 14298 
12837 2445 11466 15383 10252 11188 15192 15565 10158 
12637 17939 13631 14599 11690 17956 14745 14620 14836 
15288 11211 5905 10063 10102 10367 9778 9651 10655 
12530 8516 7408 4178 2278 3689 6152 7653 4810 
1347 785 1264 3951 1359 4979 1836 1696 1822 
1060 1531 1297 5056 379 1852 2019 1956 760 
1007 3529 1932 60 677 746 1639 1011 3401 
1221 4555 4789 3251 909 3098 967 82 2341 
281 1865 3323 4516 5058 2130 4788 3929 1425 
2237 4049 6416 6430 3856 3078 4731 1161 1494 
3965 3681 2286 3507 5607 5439 5424 6413 2685 
5623 7511 7699 7878 845 2671 1228 3890 719 
3859 6020 3762 3761 4322 7865 4144 4291 7106 
4132 7800 7867 5429 7127 5790 6646 764 9500 
9214 7056 5558 4320 6767 6886 4709 8120 6788 
9508 6625 3446 6920 6901 8506 8191 10719 9337 
7360 8271 6843 7131 7500 9967 7485 11404 9594 
8092 7392 8513 10009 7297 12032 12082 12182 12183 
12505 1562 10099 8254 9584 8658 9544 10664 8660 
11344 8840 10018 11439 9886 11470 13505 13536 13869 
9183 11345 10846 9712 9641 11383 10314 10477 11527 
12881 15562 10713 13924 6623 285 7885 9375 633 
7182 2223 8607 9751 10329 10492 13959 13048 8112 
11316 10166 11268 11276 12674 12737 11505 13940 14611 
12038 8793 12705 17782 15827 4536 8972 1404 9585 
8702 8159 10999 10684 4084 5867 2338 4923 992 
2215 183 1841 1091 3063 151 1847 1068 1735 
815 1073 1071 40 3455 3447 2556 3023 4717 
1651 1900 501 1030 4530 3389 957 2074 687 
4998 2179 1448 473 4612 1130 1479 3753 3986 
2387 2379 4960 1318 6317 892 195 4640 6511 
6369 3946 4011 5627 3674 2723 4885 5095 2638 
6321 5599 2795 2827 7809 8053 2681 3789 7720 
3788 7595 7844 5256 7975 7761 6813 4133 7896 
4156 5832 5936 9386 1918 3990 394 233 6059 
4252 5402 9251 9374 9473 6769 5983 9083 6584 
7057 5744 9208 9234 4450 6610 6846 8096 10811 
10828 4244 7114 2756 6830 6988 10794 9563 8405 
10829 9498 9318 9737 7144 4212 9755 9675 8477 
10049 9807 7481 12522 8527 10530 11049 9834 8535 
12364 8917 11412 8875 8783 7310 11627 12146 8978 
7379 8688 8216 9990 9930 10324 9630 12178 14058 
9650 8750 10472 13031 13993 13539 11153 9995 8670 
12833 9505 14073 12152 12938 7261 11259 8684 12227 
7416 13807 12976 15191 15325 15561 13943 13821 13619 
13667 12995 12687 14576 10256 4353 8140 12085 10190 