LIGGGHTS (Version LIGGGHTS-PUBLIC 3.8.0, compiled 2018-12-24-10:52:11 by karl, git commit 28301df8853491784b1d8b90533ea89b8c6af1e8)
### Launcher Simulation
### This simulation involves inserting a set of particles into a bucket,
### allowing them to settle under the force of gravity, and then accelerating


### Variables

variable youngmod equal 1.0e7
variable poisson equal 0.3
variable crest equal 0.65
variable cfric equal 1
variable rho equal 1260

variable nmaterials equal 2


variable nP equal 100000
variable tStep equal 1.0e-4
variable prate equal 50000
variable tSettle equal ${nP}/${prate}/${tStep}+1/${tStep}
variable tSettle equal 100000/${prate}/${tStep}+1/${tStep}
variable tSettle equal 100000/50000/${tStep}+1/${tStep}
variable tSettle equal 100000/50000/0.0001+1/${tStep}
variable tSettle equal 100000/50000/0.0001+1/0.0001

print "tSettle = ${tSettle}"
tSettle = 30000

variable minRad equal 0.005
variable ndist equal 2*${minRad}
variable ndist equal 2*0.005

variable yhi equal 0.5
variable ylo equal -0.1
variable xhi equal 0.2
variable xlo equal -0.2
variable zhi equal 0.3
variable zlo equal -0.3

variable fdump equal 1000


### Initialization -----------------------------------------------------------------------------------

units si
atom_style sphere
atom_modify map array
boundary f f f
newton off
communicate single vel yes

read_restart restart/restart.equil
  orthogonal box = (-0.2 -0.1 -0.3) to (0.2 0.5 0.3)
  1 by 2 by 2 MPI processor grid
  100000 atoms

# Neighbor listing
neighbor ${ndist} bin
neighbor 0.01 bin
neigh_modify every 1 check no delay 0


### Setup -------------------------------------------------------------------------------------------

# Material and interaction properties required
fix m1 all property/global youngsModulus peratomtype ${youngmod} ${youngmod}
fix m1 all property/global youngsModulus peratomtype 10000000 ${youngmod}
fix m1 all property/global youngsModulus peratomtype 10000000 10000000
fix m2 all property/global poissonsRatio peratomtype 0.3 0.3
fix m3 all property/global coefficientRestitution peratomtypepair 2 ${crest} ${crest} ${crest} ${crest}
fix m3 all property/global coefficientRestitution peratomtypepair 2 0.65 ${crest} ${crest} ${crest}
fix m3 all property/global coefficientRestitution peratomtypepair 2 0.65 0.65 ${crest} ${crest}
fix m3 all property/global coefficientRestitution peratomtypepair 2 0.65 0.65 0.65 ${crest}
fix m3 all property/global coefficientRestitution peratomtypepair 2 0.65 0.65 0.65 0.65
fix m4 all property/global coefficientFriction peratomtypepair 2 ${cfric} 0 0 ${cfric}
fix m4 all property/global coefficientFriction peratomtypepair 2 1 0 0 ${cfric}
fix m4 all property/global coefficientFriction peratomtypepair 2 1 0 0 1


# Define the physics
pair_style gran model hertz tangential history
pair_coeff * *


### Import CAD / Generate Solids --------------------------------------------------------------------

fix cad1 all mesh/surface/stress file lwplate.STL type 2 rotate axis 0 1 0 angle 90 move -0.025 0 0.16 stress on


# Use the imported mesh as granular wall
fix geometry all wall/gran model hertz tangential history mesh n_meshes 1 meshes cad1


variable time equal step*dt
variable fx equal f_cad1[1]
variable fy equal f_cad1[2]
variable fz equal f_cad1[3]
variable Mx equal f_cad1[4]
variable My equal f_cad1[5]
variable Mz equal f_cad1[6]


# Add a granular wall at the floor of the bounding box too
fix zwalls1 all wall/gran model hertz tangential history primitive type 1 zplane ${zlo}
fix zwalls1 all wall/gran model hertz tangential history primitive type 1 zplane -0.3
Resetting global state of Fix history_zwalls1 Style property/atom from restart file info
Resetting per-atom state of Fix history_zwalls1 Style property/atom from restart file info
fix zwalls2 all wall/gran model hertz tangential history primitive type 1 zplane ${zhi}
fix zwalls2 all wall/gran model hertz tangential history primitive type 1 zplane 0.3
Resetting global state of Fix history_zwalls2 Style property/atom from restart file info
Resetting per-atom state of Fix history_zwalls2 Style property/atom from restart file info
fix xwalls1 all wall/gran model hertz tangential history primitive type 1 xplane ${xlo}
fix xwalls1 all wall/gran model hertz tangential history primitive type 1 xplane -0.2
Resetting global state of Fix history_xwalls1 Style property/atom from restart file info
Resetting per-atom state of Fix history_xwalls1 Style property/atom from restart file info
fix xwalls2 all wall/gran model hertz tangential history primitive type 1 xplane ${xhi}
fix xwalls2 all wall/gran model hertz tangential history primitive type 1 xplane 0.2
Resetting global state of Fix history_xwalls2 Style property/atom from restart file info
Resetting per-atom state of Fix history_xwalls2 Style property/atom from restart file info
fix ywalls1 all wall/gran model hertz tangential history primitive type 1 yplane ${ylo}
fix ywalls1 all wall/gran model hertz tangential history primitive type 1 yplane -0.1
Resetting global state of Fix history_ywalls1 Style property/atom from restart file info
Resetting per-atom state of Fix history_ywalls1 Style property/atom from restart file info
fix ywalls2 all wall/gran model hertz tangential history primitive type 1 yplane ${yhi}
fix ywalls2 all wall/gran model hertz tangential history primitive type 1 yplane 0.5
Resetting global state of Fix history_ywalls2 Style property/atom from restart file info
Resetting per-atom state of Fix history_ywalls2 Style property/atom from restart file info


### Detailed Settings -------------------------------------------------------------------------------

# Integrator
fix integrator all nve/sphere

# Gravity
fix grav all gravity 9.81 vector 0.0 0.0 -1.0

# Time step
timestep ${tStep}
timestep 0.0001

# Check time step and initialize dump file
fix ctg all check/timestep/gran 1 0.01 0.01
run 1
Resetting global state of Fix contacthistory Style contacthistory from restart file info
Resetting per-atom state of Fix contacthistory Style contacthistory from restart file info
Setting up run at Mon Apr 29 23:10:39 2019

Memory usage per processor = 62.1539 Mbytes
    Step    Atoms         KinEng            CPU 
   30001   100000  0.00044794764              0 
WARNING: time-step is 32.553574 % of rayleigh time (../fix_check_timestep_gran.cpp:200)
WARNING: time-step is 20.218084 % of hertz time (../fix_check_timestep_gran.cpp:208)
   30002   100000     0.15913623     0.42617157 
Loop time of 0.427473 on 4 procs for 1 steps with 100000 atoms, finish time Mon Apr 29 23:10:39 2019


Pair  time (%) = 0.0731531 (17.1129)
Neigh time (%) = 0.131667 (30.8013)
Comm  time (%) = 0.123325 (28.8497)
Outpt time (%) = 0.00121193 (0.283511)
Other time (%) = 0.0981157 (22.9525)

Nlocal:    25000 ave 41950 max 7731 min
Histogram: 2 0 0 0 0 0 0 0 0 2
Nghost:    4607.5 ave 5773 max 3453 min
Histogram: 2 0 0 0 0 0 0 0 0 2
Neighs:    507178 ave 854365 max 153901 min
Histogram: 2 0 0 0 0 0 0 0 0 2

Total # of neighbors = 2028710
Ave neighs/atom = 20.2871
Neighbor list builds = 1
Dangerous builds = 0
unfix ctg

# Dump Files for Post-Processing --------------------------------------------------------------------

dump dumpstl all stl 2000 post/cad_*.stl
dump dmp all custom/vtk ${fdump} post/plate_*.vtk id type type x y z ix iy iz vx vy vz fx fy fz omegax omegay omegaz radius
dump dmp all custom/vtk 1000 post/plate_*.vtk id type type x y z ix iy iz vx vy vz fx fy fz omegax omegay omegaz radius
dump forces1 all mesh/vtk ${fdump} post/stress_*.vtk output interpolate stress stresscomponents cad1
dump forces1 all mesh/vtk 1000 post/stress_*.vtk output interpolate stress stresscomponents cad1

fix forceslog all print 200 "${time},${fx},${fy},${fz},${Mx},${My},${Mz}" file post/forces.csv title "t,Fx,Fy,Fz,Mx,My,Mz" screen no


# Run simulation for N time steps ------------------------------------------------------------------

# Move scoop into regolith surface

fix moveCad1 all move/mesh mesh cad1 linear 0 0 -0.1
run 10000
Setting up run at Mon Apr 29 23:10:40 2019

Memory usage per processor = 62.1542 Mbytes
    Step    Atoms         KinEng            CPU 
   30002   100000     0.15913623              0 
   40002   100000  0.00071374799      4555.2383 
Loop time of 4555.24 on 4 procs for 10000 steps with 100000 atoms, finish time Tue Apr 30 00:26:35 2019


Pair  time (%) = 753.666 (16.545)
Neigh time (%) = 1309.21 (28.7407)
Comm  time (%) = 241.25 (5.2961)
Outpt time (%) = 6.53649 (0.143494)
Other time (%) = 2244.58 (49.2747)

Nlocal:    25000 ave 41944 max 7733 min
Histogram: 2 0 0 0 0 0 0 0 0 2
Nghost:    4605.75 ave 5776 max 3451 min
Histogram: 2 0 0 0 0 0 0 0 0 2
Neighs:    507200 ave 854119 max 153993 min
Histogram: 2 0 0 0 0 0 0 0 0 2

Total # of neighbors = 2028800
Ave neighs/atom = 20.288
Neighbor list builds = 10000
Dangerous builds = 0

# Stop CAD motion
unfix moveCad1
run 5000
Setting up run at Tue Apr 30 00:26:35 2019

Memory usage per processor = 68.7943 Mbytes
    Step    Atoms         KinEng            CPU 
   40002   100000  0.00071374799              0 
   45002   100000  4.4515283e-05      2245.7452 
Loop time of 2245.75 on 4 procs for 5000 steps with 100000 atoms, finish time Tue Apr 30 01:04:01 2019


Pair  time (%) = 388.811 (17.3132)
Neigh time (%) = 672.899 (29.9633)
Comm  time (%) = 689.335 (30.6952)
Outpt time (%) = 3.32092 (0.147876)
Other time (%) = 491.38 (21.8805)

Nlocal:    25000 ave 41943 max 7732 min
Histogram: 2 0 0 0 0 0 0 0 0 2
Nghost:    4604 ave 5770 max 3450 min
Histogram: 2 0 0 0 0 0 0 0 0 2
Neighs:    507207 ave 854076 max 153962 min
Histogram: 2 0 0 0 0 0 0 0 0 2

Total # of neighbors = 2028827
Ave neighs/atom = 20.2883
Neighbor list builds = 5000
Dangerous builds = 0

# Move scoop through regolith surface
fix moveCad2 all move/mesh mesh cad1 linear 0 0.005 0
run 5000
Setting up run at Tue Apr 30 01:04:01 2019

Memory usage per processor = 68.7943 Mbytes
    Step    Atoms         KinEng            CPU 
   45002   100000  4.4515283e-05              0 
   50002   100000  6.5338285e-05      1932.7731 
Loop time of 1932.77 on 4 procs for 5000 steps with 100000 atoms, finish time Tue Apr 30 01:36:15 2019


Pair  time (%) = 345.46 (17.8738)
Neigh time (%) = 596.201 (30.8469)
Comm  time (%) = 90.2388 (4.66888)
Outpt time (%) = 3.14511 (0.162725)
Other time (%) = 897.729 (46.4477)

Nlocal:    25000 ave 41945 max 7733 min
Histogram: 2 0 0 0 0 0 0 0 0 2
Nghost:    4605 ave 5776 max 3454 min
Histogram: 2 0 0 0 0 0 0 0 0 2
Neighs:    507122 ave 854192 max 154016 min
Histogram: 2 0 0 0 0 0 0 0 0 2

Total # of neighbors = 2028490
Ave neighs/atom = 20.2849
Neighbor list builds = 5000
Dangerous builds = 0

# Stop CAD motion
unfix moveCad2

run 5000
Setting up run at Tue Apr 30 01:36:15 2019

Memory usage per processor = 68.7943 Mbytes
    Step    Atoms         KinEng            CPU 
   50002   100000  6.5338285e-05              0 
   55002   100000  4.5214631e-06       2195.453 
Loop time of 2195.45 on 4 procs for 5000 steps with 100000 atoms, finish time Tue Apr 30 02:12:51 2019


Pair  time (%) = 381.332 (17.3692)
Neigh time (%) = 658.423 (29.9903)
Comm  time (%) = 676.144 (30.7975)
Outpt time (%) = 3.18068 (0.144876)
Other time (%) = 476.374 (21.6982)

Nlocal:    25000 ave 41945 max 7733 min
Histogram: 2 0 0 0 0 0 0 0 0 2
Nghost:    4604.75 ave 5775 max 3454 min
Histogram: 2 0 0 0 0 0 0 0 0 2
Neighs:    507116 ave 854193 max 154010 min
Histogram: 2 0 0 0 0 0 0 0 0 2

Total # of neighbors = 2028465
Ave neighs/atom = 20.2846
Neighbor list builds = 5000
Dangerous builds = 0
